LAMMPS (23 Jun 2022 - Update 1)
units       metal
dimension   3
boundary    p   p   p
atom_style  atomic
neighbor        2.0 bin
neigh_modify    delay 1
atom_modify map array
variable a equal 5.909067992
lattice custom $a a1 1.0 0.0 0.0 a2 0.0 1.0 0.0 a3 0.0 0.0 0.5499413222862777                 basis 0.0 0.0 0.0 basis 0.5 0.0 0.25 basis 0.5 0.5 0.5 basis 0.0 0.5 0.75
lattice custom 5.909067992 a1 1.0 0.0 0.0 a2 0.0 1.0 0.0 a3 0.0 0.0 0.5499413222862777                 basis 0.0 0.0 0.0 basis 0.5 0.0 0.25 basis 0.5 0.5 0.5 basis 0.0 0.5 0.75
Lattice spacing in x,y,z = 5.909068 5.909068 3.2496407

timestep            0.001

region  whole prism 0.0 30.0 0.0 30.0 0 55.0 0.0 0.0 0.0 units lattice
create_box 1 whole
Created triclinic box = (0 0 0) to (177.27204 177.27204 178.73024) with tilt (0 0 0)
  6 by 6 by 10 MPI processor grid
create_atoms 1 region whole
Created 198000 atoms
  using lattice units in triclinic box = (0 0 0) to (177.27204 177.27204 178.73024) with tilt (0 0 0)
  create_atoms CPU = 0.008 seconds

pair_style rann
pair_coeff * * Sn.eam-r Sn

compute peratom all pe/atom

variable xavg equal (xhi+xlo)/2
variable yavg equal (yhi+ylo)/2
variable zavg equal (zhi+zlo)/2

shell mkdir z_300
dump                1 all custom 200 z_300/dump.*.gz type x y z c_peratom
dump_modify         1 element  Sn


thermo              100
thermo_style        custom step temp pxx pyy pzz pxy pxz pyz lx ly lz pe

variable            etol equal 1.0e-8
variable            ftol equal 1.0e-8
variable            maxiter equal 100000
variable            maxeval equal 100000

fix                 1 all box/relax  aniso 0.0
min_style           cg
minimize            ${etol} ${ftol} ${maxiter} ${maxeval}
minimize            1e-08 ${ftol} ${maxiter} ${maxeval}
minimize            1e-08 1e-08 ${maxiter} ${maxeval}
minimize            1e-08 1e-08 100000 ${maxeval}
minimize            1e-08 1e-08 100000 100000

CITE-CITE-CITE-CITE-CITE-CITE-CITE-CITE-CITE-CITE-CITE-CITE-CITE

Your simulation uses code contributions which should be cited:

- ML-RANN package:

@Article{Nitol2021,
 author = {Nitol, Mashroor S and Dickel, Doyl E and Barrett, Christopher D},
 title = {Artificial neural network potential for pure zinc},
 journal = {Computational Materials Science},
 year =    2021,
 volume =  188,
 pages =   {110207}
}

CITE-CITE-CITE-CITE-CITE-CITE-CITE-CITE-CITE-CITE-CITE-CITE-CITE

WARNING: Using 'neigh_modify every 1 delay 0 check yes' setting during minimization (../min.cpp:187)
Neighbor list info ...
  update every 1 steps, delay 0 steps, check yes
  max neighbors/atom: 2000, page size: 100000
  master list distance cutoff = 10
  ghost atom cutoff = 10
  binsize = 5, bins = 36 36 36
  1 neighbor lists, perpetual/occasional/extra = 1 0 0
  (1) pair rann, perpetual
      attributes: full, newton on
      pair build: full/bin/atomonly
      stencil: full/bin/3d
      bin: standard
Per MPI rank memory allocation (min/avg/max) = 6.611 | 6.618 | 6.622 Mbytes
   Step          Temp           Pxx            Pyy            Pzz            Pxy            Pxz            Pyz             Lx             Ly             Lz           PotEng    
         0   0              2386.1343      2386.1343      414.05956      5.1149682e-10 -1.4454556e-09 -1.0343624e-09  177.27204      177.27204      178.73024     -612606.77    
        31   0             -0.051660537   -0.051660535   -0.056171975    4.5403184e-10  1.073266e-10   6.4683872e-10  177.72077      177.72077      178.44768     -612626.72    
Loop time of 12.2015 on 360 procs for 31 steps with 198000 atoms

99.5% CPU use with 360 MPI tasks x no OpenMP threads

Minimization stats:
  Stopping criterion = energy tolerance
  Energy initial, next-to-last, final = 
      -612606.77433286  -612626.716980696  -612626.718437724
  Force two-norm initial, final = 11918.539 0.32387112
  Force max component initial, final = 8364.9442 0.1979173
  Final line search alpha, max atom move = 1.7484035e-06 3.460393e-07
  Iterations, force evaluations = 31 32

MPI task timing breakdown:
Section |  min time  |  avg time  |  max time  |%varavg| %total
---------------------------------------------------------------
Pair    | 10.729     | 11.29      | 11.886     |  11.8 | 92.53
Neigh   | 0          | 0          | 0          |   0.0 |  0.00
Comm    | 0.0083329  | 0.58056    | 1.1529     |  52.5 |  4.76
Output  | 0          | 0          | 0          |   0.0 |  0.00
Modify  | 0          | 0          | 0          |   0.0 |  0.00
Other   |            | 0.3311     |            |       |  2.71

Nlocal:            550 ave         575 max         525 min
Histogram: 108 0 0 0 0 144 0 0 0 108
Nghost:           2846 ave        2871 max        2821 min
Histogram: 108 0 0 0 0 144 0 0 0 108
Neighs:              0 ave           0 max           0 min
Histogram: 360 0 0 0 0 0 0 0 0 0
FullNghs:        84700 ave       88550 max       80850 min
Histogram: 108 0 0 0 0 144 0 0 0 108

Total # of neighbors = 30492000
Ave neighs/atom = 154
Neighbor list builds = 0
Dangerous builds = 0
unfix               1


velocity            all create 300 12345 mom yes rot no
fix                 1 all npt temp 300 300 .1 aniso 40000 40000 1 drag 1
run 3000
Per MPI rank memory allocation (min/avg/max) = 5.486 | 5.508 | 5.879 Mbytes
   Step          Temp           Pxx            Pyy            Pzz            Pxy            Pxz            Pyz             Lx             Ly             Lz           PotEng    
        31   300            1450.8121      1456.1145      1458.0918     -0.21778261     0.80619514     0.42596726     177.72077      177.72077      178.44768     -612626.72    
       100   106.61322      21620.171      21718.126      19590.822     -4.0650399     -22.994859     -5.9294464      176.07411      176.07687      176.73666     -606561.84    
       200   153.58059      33795.203      33875.351      32492.665     -6.8100208      10.688944     -2.3461418      174.78238      174.79382      175.36847     -605456.67    
       300   180.00891      39187.074      39160.786      37843.803      1.3879964     -8.8525682      8.2849219      174.3292       174.34467      174.66389     -604742.96    
       400   197.51549      39758.633      39758.345      39522.48      -9.3549536     -15.92829      -4.3304381      174.36808      174.37205      174.34242     -604710.31    
       500   200.02777      40131.333      40115.129      40348.376      2.5473897      24.01514       13.564443      174.37163      174.37801      174.28403     -604444.26    
       600   198.68798      40472.826      40440.229      40102.783     -8.117505      -15.22071      -10.435427      174.34853      174.3509       174.36327     -604144.89    
       700   192.00297      40237.395      40255.484      40120.359     -4.750749       13.094889      8.3558496      174.40827      174.40299      174.40898     -603806.41    
       800   213.02712      39680.845      39674.289      39761.21      -1.5522083      9.717614       8.4845255      174.47365      174.47507      174.35429     -604117.04    
       900   219.47401      39676.766      39637.353      40042.774      11.503387     -28.656715     -12.919585      174.50601      174.50647      174.33511     -604030.11    
      1000   219.78753      40206.701      40259.305      39996.227     -23.685797      19.341498      13.544187      174.46306      174.44975      174.41636     -603746.11    
      1100   219.25376      40302.05       40249.964      40026.465     -4.1264836     -26.41761      -3.7999565      174.49183      174.4885       174.4029      -603500.62    
      1200   225.76424      39989.391      39975.122      40131.75      -1.0997677      7.6164088      3.5761892      174.55206      174.53319      174.37802     -603455.39    
      1300   238.75077      39846.62       39885.825      39948.024      7.3086981      1.8479567      5.4567335      174.55281      174.52558      174.42912     -603554.5     
      1400   243.65247      39927.549      39864.075      39973.009      3.545985      -29.150289     -4.8112602      174.55656      174.53911      174.46009     -603462.16    
      1500   242.07535      40025.631      40119.194      39861.464     -4.2053582      3.8512279      1.8131678      174.57782      174.54374      174.48602     -603214.1     
      1600   243.03759      40219.485      40166.059      40116.243     -8.7232785     -11.984165     -10.787492      174.60162      174.5859       174.43213     -603004.85    
      1700   250.54083      39907.579      39954.875      40113.698     -3.5162099     -11.228263      1.5534019      174.65356      174.62304      174.41273     -603011.8     
      1800   259.56275      39889.825      39873.685      39948.06      -3.3809414      9.8809306      12.335817      174.63422      174.62116      174.47776     -603049.49    
      1900   261.95943      40020.573      40014.11       39921.488     -3.8765308     -41.958683     -29.805053      174.62573      174.61554      174.52059     -602920.51    
      2000   262.68489      40073.797      40054.676      40035.964     -14.35974       32.997899      17.438029      174.64697      174.63496      174.51005     -602760.08    
      2100   265.93444      40103.863      40057.854      40000.224      0.65246869    -11.224718     -11.774056      174.66825      174.65774      174.49712     -602671.71    
      2200   270.36027      39943.576      39893.444      40053.254      14.74544      -1.0109986      3.1047589      174.6957       174.69209      174.48875     -602638.84    
      2300   274.38914      39953.057      40037.607      39986.324      8.0167261      18.532045      3.0872089      174.70281      174.6704       174.5251      -602582.8     
      2400   276.89516      39999.214      39961.572      39923.173     -16.551305     -27.599728      2.3212121      174.71126      174.68231      174.54516     -602513.64    
      2500   279.11084      40061.269      40098.992      40081.056     -0.41154917     20.312556      2.0033477      174.72105      174.68765      174.52814     -602418.33    
      2600   281.4936       39994.162      39972.943      39991.317     -0.69405114    -9.9029564      3.69586        174.72649      174.71555      174.54639     -602378.09    
      2700   285.35055      39964.344      40014.981      39949.18       16.178942     -29.461531     -12.291561      174.73117      174.71965      174.55326     -602357.06    
      2800   285.92615      39969.646      39919.209      40046.19       5.3434915      34.340874      13.236635      174.74165      174.75448      174.54074     -602275.33    
      2900   288.29971      40037.888      40078.009      40046.774      9.8682171     -40.255406     -4.5884461      174.73148      174.74352      174.56099     -602225.28    
      3000   290.68682      40002.849      39965.424      39874.342     -4.116521       31.440439      8.4701035      174.73253      174.7561       174.59266     -602222.01    
      3031   290.81049      40053.905      40001.116      39944.563     -11.522803      48.136932      19.759471      174.73097      174.7604       174.58234     -602191.31    
Loop time of 941.265 on 360 procs for 3000 steps with 198000 atoms

Performance: 0.275 ns/day, 87.154 hours/ns, 3.187 timesteps/s
99.8% CPU use with 360 MPI tasks x no OpenMP threads

MPI task timing breakdown:
Section |  min time  |  avg time  |  max time  |%varavg| %total
---------------------------------------------------------------
Pair    | 860.94     | 878.48     | 898.4      |  23.1 | 93.33
Neigh   | 0.051175   | 0.053485   | 0.063342   |   0.7 |  0.01
Comm    | 17.423     | 36.058     | 52.544     | 111.0 |  3.83
Output  | 0.92323    | 7.528      | 13.12      | 120.7 |  0.80
Modify  | 7.5205     | 18.947     | 30.312     | 114.7 |  2.01
Other   |            | 0.1949     |            |       |  0.02

Nlocal:            550 ave         574 max         522 min
Histogram: 2 5 18 37 70 104 75 29 13 7
Nghost:        2847.81 ave        2878 max        2825 min
Histogram: 8 19 47 87 85 61 36 12 4 1
Neighs:              0 ave           0 max           0 min
Histogram: 360 0 0 0 0 0 0 0 0 0
FullNghs:      84873.6 ave       88629 max       80568 min
Histogram: 2 5 20 43 78 87 75 30 14 6

Total # of neighbors = 30554490
Ave neighs/atom = 154.31561
Neighbor list builds = 18
Dangerous builds = 0

unfix 1
velocity            all create 300 12345 mom yes rot no
fix                 1 all npt temp 300 300 .1 aniso 40000 40000 1 drag 1
run 5000
Per MPI rank memory allocation (min/avg/max) = 5.487 | 5.509 | 5.879 Mbytes
   Step          Temp           Pxx            Pyy            Pzz            Pxy            Pxz            Pyz             Lx             Ly             Lz           PotEng    
      3031   300            40099.281      40049.878      39991.792     -11.201646      55.763141      23.725875      174.73097      174.7604       174.58234     -602191.31    
      3100   290.55717      40272.517      40373.031      39968.898     -9.7084167     -34.821541      11.992829      174.73568      174.76359      174.56986     -601954.87    
      3200   293.23196      39687.605      39659.406      40036.584     -17.742356      18.524186     -18.43212       174.81602      174.87415      174.48634     -602020.99    
      3300   299.76005      39774.465      39765.172      40012.676     -1.7993251      11.800465      41.104384      174.79276      174.85315      174.51678     -602096.9     
      3400   299.98835      40194.245      40226.429      39992.807      7.7848387     -37.933781     -38.665825      174.72687      174.786        174.5966      -602047.05    
      3500   296.50867      40132.519      40093.312      40007.534     -4.4587228      36.923738      45.107055      174.72569      174.8041       174.60621     -602003.83    
      3600   297.78255      40054.622      40039.888      40036.553     -13.666887     -5.6974481     -40.347539      174.73005      174.81729      174.57101     -602001.89    
      3700   299.16478      39630.312      39625.795      39896.432     -6.7690884      3.4620502      7.0555171      174.77275      174.87046      174.56944     -602053.85    
      3800   301.70969      40053.577      40146.353      40006.629      1.9981654      18.446389      17.475037      174.73804      174.81478      174.58547     -602022.87    
      3900   299.57854      40300.537      40225.992      40011.187      7.9265858     -22.195197     -12.554868      174.72655      174.82434      174.5637      -601991.72    
      4000   295.14305      40046.293      40009.11       40167.32      -37.602489      9.3959827      20.074988      174.76597      174.85845      174.51778     -601928.37    
      4100   294.74914      39822.601      39857.098      39963.356     -3.7326134     -9.8737775     -5.7336922      174.7759       174.8501       174.56182     -601896.19    
      4200   300.37424      39574.381      39569.771      39737.382      1.1363501      2.1769021     -2.2602456      174.77586      174.86339      174.62712     -602012.41    
      4300   310.57644      40249.498      40313.898      40019.795      0.73674979     3.3687477      29.39889       174.69376      174.76885      174.61554     -602155.16    
      4400   307.49722      40587.344      40459.561      40193          3.2854498     -5.5846896     -28.917482      174.68616      174.76775      174.54283     -602156.13    
      4500   288.74246      40049.292      40147.842      40548.844     -9.2838416     -7.887578       27.169728      174.76421      174.81815      174.50843     -601850.23    
      4600   281.4783       38926.881      38828.727      38696.765      2.7679878     -1.8701026     -15.783954      174.87851      174.95285      174.71461     -601848.92    
      4700   295.32642      40624.034      40605.757      40558.516     -16.501576      9.8583624      1.7258277      174.76733      174.79787      174.46892     -601701.67    
      4800   308.11677      39995.901      40021.49       40214.82       8.665337       0.36158449     7.8075844      174.79545      174.802        174.51138     -602139.79    
      4900   310.08697      39973.525      39939.081      39844.539      11.345399      4.787375      -12.133145      174.74295      174.73442      174.63862     -602298.15    
      5000   299.11573      39943.101      40001.112      39804.775     -12.342413     -6.2349052      11.856418      174.77045      174.74441      174.63619     -602083.31    
      5100   290.96721      39957.547      39926.295      40038.931     -7.3706573      2.8218042      14.085916      174.84214      174.81186      174.52756     -601842.13    
      5200   294.31481      40054.032      40081.444      40184.866     -9.6704993     -1.9851739     -4.8793475      174.84889      174.79955      174.50325     -601828.94    
      5300   301.66357      39992.339      39963.828      39905.916      1.7246255      0.83068609     2.884862       174.81605      174.77304      174.5822      -602001.36    
      5400   303.89419      39998.833      40040.516      40037.506      7.6662307     -8.4267068     -8.1191771      174.79683      174.74738      174.58917     -602067.77    
      5500   301.2332       39956.57       39906.181      39958.537      5.5210551     -1.9619181      14.553507      174.78923      174.76603      174.60206     -602055.25    
      5600   297.73216      40022.583      40134.449      39930.274     -7.4869282     -0.56387026    -12.328315      174.79569      174.76039      174.59159     -601961.38    
      5700   297.46991      40039.977      39981.987      40110.241      6.3280425     -5.251748       11.204665      174.81516      174.80231      174.53414     -601926.61    
      5800   298.75453      39904.138      40003.613      40024.846      19.635416      6.2934713     -4.0539832      174.83081      174.79477      174.54887     -601945.53    
      5900   299.37718      40030.491      39999.02       39950.37      -19.007735     -9.8654496      5.5920934      174.79016      174.80211      174.58336     -601935.75    
      6000   300.87046      40000.851      39958.565      39984.59       1.9782527      5.5314147      6.9448084      174.78284      174.81435      174.57623     -601957.1     
      6100   302.77708      40013.827      40090.151      40076.674     -4.2678883     -7.9388112      2.7695432      174.76694      174.80409      174.5637      -602009.69    
      6200   301.32959      39935.379      39955.773      39913.1       -3.094536      -4.7436886      27.46869       174.75007      174.82884      174.58925     -602032.69    
      6300   298.58305      40037.152      40058.887      40007.464     -6.2976377      23.976547     -27.257237      174.73359      174.84114      174.57613     -601958.94    
      6400   297.91696      39969.553      39994.789      40065.164      9.5143885     -10.918939      29.65554       174.71804      174.88811      174.56265     -601928.33    
      6500   300.12166      39983.802      39978.613      39934.263      4.6514528      13.023196     -26.021923      174.68085      174.91035      174.58408     -601960.12    
      6600   300.73951      40007.957      40032.022      39990.753     -16.245987     -15.623628      7.3686333      174.64952      174.93698      174.57458     -601959.49    
      6700   300.54127      39975.481      39905.793      40085.466     -21.446849     -9.5685726      11.145197      174.63734      174.97243      174.55851     -601970.94    
      6800   300.22482      39965.606      40150.082      39905.408     -26.242296      19.755145     -13.023621      174.60818      174.95725      174.59624     -601973.86    
      6900   300.13969      40114.648      39873.335      39982.055      4.3777493     -33.129767      19.495141      174.58132      175.01386      174.56605     -601977.98    
      7000   299.19731      39841.637      40059.755      40114.946      2.0584239      19.427225     -20.601037      174.61011      175.01783      174.5343      -601950.92    
      7100   299.69009      40140.711      39967.117      39914.456     -8.5881195     -22.485454     -1.3618046      174.55009      175.02857      174.58602     -601950.9     
      7200   300.57561      39912.343      40089.097      40002.135     -21.352631     -3.0769466      10.987094      174.57775      175.01459      174.56881     -601970.37    
      7300   300.66925      40064.46       39818.731      40047.097     -15.573751     -0.62725605    -7.3944485      174.56801      175.04292      174.55493     -601984.6     
      7400   299.33833      39880.302      40213.253      39944.733     -14.186974      2.1607573      22.153088      174.57419      174.99728      174.59109     -601955.39    
      7500   299.99347      40168.994      39868.585      39971.363     -3.1717726      9.4599519     -26.436772      174.53586      175.05726      174.57016     -601962.29    
      7600   300.35552      39851.56       40039.211      40111.892     -8.099271      -29.344907      3.9794655      174.58563      175.03774      174.53842     -601972.23    
      7700   300.23685      40115.907      39938.033      39898.992     -4.5983098      23.56336       2.7506385      174.54137      175.03356      174.58942     -601975.5     
      7800   299.35759      39913.92       40104.311      39993.842     -5.1498881      6.6038575     -8.7758789      174.58168      175.00762      174.57475     -601953.44    
      7900   299.43586      40029.091      39966.285      40086.831     -8.7658881     -7.5662379     -2.6522893      174.57249      175.03008      174.55693     -601943.26    
      8000   299.67031      40032.84       40035.738      39920.408     -6.1249977      23.468627     -4.5985429      174.56516      175.0188       174.58419     -601951.53    
      8031   299.73114      39933.699      40078.746      39927.675     -10.634601      3.5653364     -13.864074      174.57795      175.01611      174.57985     -601956.69    
Loop time of 1540.18 on 360 procs for 5000 steps with 198000 atoms

Performance: 0.280 ns/day, 85.566 hours/ns, 3.246 timesteps/s
99.8% CPU use with 360 MPI tasks x no OpenMP threads

MPI task timing breakdown:
Section |  min time  |  avg time  |  max time  |%varavg| %total
---------------------------------------------------------------
Pair    | 1398.4     | 1436.3     | 1465.5     |  27.7 | 93.26
Neigh   | 0.07767    | 0.08114    | 0.095949   |   0.8 |  0.01
Comm    | 32.792     | 59.796     | 94.204     | 133.3 |  3.88
Output  | 1.1249     | 11.012     | 20.494     | 165.5 |  0.71
Modify  | 15.541     | 32.625     | 49.84      | 135.2 |  2.12
Other   |            | 0.3214     |            |       |  0.02

Nlocal:            550 ave         574 max         525 min
Histogram: 3 9 33 52 67 87 62 29 14 4
Nghost:        2848.31 ave        2873 max        2824 min
Histogram: 4 13 27 64 80 65 55 38 11 3
Neighs:              0 ave           0 max           0 min
Histogram: 360 0 0 0 0 0 0 0 0 0
FullNghs:      84875.1 ave       88646 max       81011 min
Histogram: 3 11 33 56 65 84 60 30 13 5

Total # of neighbors = 30555054
Ave neighs/atom = 154.31845
Neighbor list builds = 27
Dangerous builds = 0
unfix 1
region r1 sphere ${xavg} ${yavg} ${zavg} 12 units box
region r1 sphere 88.6360198799996 ${yavg} ${zavg} 12 units box
region r1 sphere 88.6360198799996 88.6360198799992 ${zavg} 12 units box
region r1 sphere 88.6360198799996 88.6360198799992 89.3651182875005 12 units box
delete_atoms region r1
Deleted 260 atoms, new total = 197740

min_style           cg
minimize            ${etol} ${ftol} ${maxiter} ${maxeval}
minimize            1e-08 ${ftol} ${maxiter} ${maxeval}
minimize            1e-08 1e-08 ${maxiter} ${maxeval}
minimize            1e-08 1e-08 100000 ${maxeval}
minimize            1e-08 1e-08 100000 100000
WARNING: Using 'neigh_modify every 1 delay 0 check yes' setting during minimization (../min.cpp:187)
Per MPI rank memory allocation (min/avg/max) = 6.612 | 6.634 | 7.004 Mbytes
   Step          Temp           Pxx            Pyy            Pzz            Pxy            Pxz            Pyz             Lx             Ly             Lz           PotEng    
      8031   299.71609      39850.921      39996.622      39826.361     -10.627357      6.1834001     -12.984617      174.57795      175.01611      174.57985     -601123.05    
      8100   299.71609      30546.637      30169.428      31746.562      0.84748352    -3.7544944      1.0612451      174.57795      175.01611      174.57985     -609164.57    
      8200   299.71609      30434.704      30188.647      31717.722      1.4897846     -3.5849356      3.091227       174.57795      175.01611      174.57985     -609172.26    
      8300   299.71609      30274.281      30342.561      31698.584      6.319472      -3.9155144     -0.7971137      174.57795      175.01611      174.57985     -609185.65    
      8400   299.71609      30176.921      30749.089      31724.437      13.700373     -3.3026431      4.6743318      174.57795      175.01611      174.57985     -609208.08    
      8500   299.71609      31093.931      31952.63       32168.289      83.860798      4.8039768     -5.0086549      174.57795      175.01611      174.57985     -609313.91    
      8600   299.71609      33108.945      33739.239      33345.688      237.26001      11.669783     -11.077079      174.57795      175.01611      174.57985     -609600.9     
      8700   299.71609      35225.38       34805.964      34553.681      361.61223      61.851138     -50.283033      174.57795      175.01611      174.57985     -609871.24    
      8800   299.71609      36747.372      36113.565      35743.205      461.14505      99.204195     -89.2971        174.57795      175.01611      174.57985     -610127.97    
      8900   299.71609      38334.953      37336.916      37083.162      577.7178       101.7768      -89.461322      174.57795      175.01611      174.57985     -610418.09    
      9000   299.71609      39552.233      38727.369      38785.051      754.01751      102.72678     -102.20451      174.57795      175.01611      174.57985     -610767.17    
      9100   299.71609      40020.531      40112.903      41025.162      815.29262     -108.35729      112.75227      174.57795      175.01611      174.57985     -611139.56    
      9200   299.71609      40002.814      40449.632      41533.433      840.02318     -463.79888      467.24429      174.57795      175.01611      174.57985     -611251.56    
      9300   299.71609      40217.073      40278.659      41712.742      872.45078     -172.90782      173.18598      174.57795      175.01611      174.57985     -611307.21    
      9400   299.71609      40187.729      40318.586      41751.781      890.25476      125.46656     -139.74223      174.57795      175.01611      174.57985     -611327.78    
      9500   299.71609      40117.188      40394.877      41759.533      890.16382      96.551798     -112.27389      174.57795      175.01611      174.57985     -611331.02    
      9555   299.71609      40111.785      40404.859      41761.626      895.31289      97.881862     -117.25712      174.57795      175.01611      174.57985     -611332.28    
Loop time of 767.133 on 360 procs for 1524 steps with 197740 atoms

99.8% CPU use with 360 MPI tasks x no OpenMP threads

Minimization stats:
  Stopping criterion = energy tolerance
  Energy initial, next-to-last, final = 
     -601123.053824126  -611332.278406471   -611332.28412809
  Force two-norm initial, final = 250.31035 0.18070768
  Force max component initial, final = 2.1408758 0.051191727
  Final line search alpha, max atom move = 1 0.051191727
  Iterations, force evaluations = 1524 2018

MPI task timing breakdown:
Section |  min time  |  avg time  |  max time  |%varavg| %total
---------------------------------------------------------------
Pair    | 651.44     | 688.99     | 727.79     |  41.7 | 89.81
Neigh   | 0.17588    | 0.18659    | 0.22191    |   1.3 |  0.02
Comm    | 11.572     | 48.488     | 87.395     | 160.1 |  6.32
Output  | 0.05746    | 2.9178     | 5.5402     |  90.3 |  0.38
Modify  | 0          | 0          | 0          |   0.0 |  0.00
Other   |            | 26.55      |            |       |  3.46

Nlocal:        549.278 ave         566 max         528 min
Histogram: 2 7 4 34 52 101 107 47 4 2
Nghost:        2812.68 ave        2923 max        2683 min
Histogram: 3 6 6 117 60 53 34 10 49 22
Neighs:              0 ave           0 max           0 min
Histogram: 360 0 0 0 0 0 0 0 0 0
FullNghs:      83788.9 ave       86559 max       81336 min
Histogram: 10 11 39 79 66 65 54 26 7 3

Total # of neighbors = 30163996
Ave neighs/atom = 152.54372
Neighbor list builds = 65
Dangerous builds = 0


fix                 1 all npt temp 300 300 .1 aniso 40000 40000 1 drag 1
run 3000
Per MPI rank memory allocation (min/avg/max) = 5.489 | 5.514 | 5.882 Mbytes
   Step          Temp           Pxx            Pyy            Pzz            Pxy            Pxz            Pyz             Lx             Ly             Lz           PotEng    
      9555   299.71609      40111.785      40404.859      41761.626      895.31289      97.881862     -117.25712      174.57795      175.01611      174.57985     -611332.28    
      9600   160.42725      41485.565      41585.319      42989.759      797.98518      97.155714     -121.06387      174.62911      175.09533      174.8088      -608010.65    
      9700   150.08282      37728.249      37646.708      38424.481      673.69209      84.539052     -109.60185      174.59467      175.07588      175.33634     -607943.63    
      9800   150.79414      40297.335      40371.513      39417.162      792.62728      90.704189     -97.829664      174.46161      174.92961      175.42567     -607565.42    
      9900   159.49073      40947.938      40923.782      41142.372      781.30044      103.10632     -104.1943       174.54509      175.03291      175.22195     -607478.22    
     10000   171.79241      39517.165      39494.466      40122.536      719.70352      73.097259     -112.52002      174.5798       175.06659      175.25651     -607586.01    
     10100   174.88028      39539.342      39549.373      39071.722      766.95984      67.635989     -99.460142      174.53722      175.02137      175.40995     -607432       
     10200   172.50988      40481.514      40513.403      40443.252      769.76382      56.140792     -104.97377      174.54015      175.03057      175.31215     -607014.11    
     10300   183.47537      40090.48       40038.939      40340.039      742.10073      53.297027     -100.52021      174.58487      175.07611      175.31913     -607073.84    
     10400   192.65726      39695.609      39693.158      39524.157      755.49142      53.343689     -97.834594      174.60087      175.08216      175.39409     -607089.61    
     10500   191.01785      40134.828      40153.186      40251.439      738.55526      52.736568     -97.343191      174.5859       175.06938      175.3366      -606690.83    
     10600   197.71506      40089.138      40152.732      40061.406      751.07693      36.365611     -97.270295      174.588        175.0731       175.39129     -606615.86    
     10700   208.08713      39863.897      39780.986      39741.117      743.86676      49.138144     -91.671385      174.6255       175.12394      175.41079     -606673.09    
     10800   210.02471      39990.821      39987.601      40188.475      731.74669      39.756018     -73.631124      174.64619      175.13712      175.34843     -606414.92    
     10900   212.20942      40126.492      40163.297      40097.555      723.72878      17.951289     -78.322121      174.61696      175.10551      175.41146     -606189.23    
     11000   221.70732      39951.134      39984.964      39850.566      723.52443      18.011301     -70.271888      174.63056      175.12398      175.46125     -606213.77    
     11100   226.50691      39944.845      39805.299      40056.293      708.18677      23.695946     -70.920271      174.66156      175.17808      175.42895     -606102.76    
     11200   229.49548      40026.913      40162.85       40079.067      697.66091      18.556556     -63.021449      174.65075      175.12909      175.46996     -605896.64    
     11300   234.4139       40062.721      40029.166      39907.662      697.60726      16.627993     -39.157745      174.63554      175.137        175.52592     -605796.32    
     11400   240.9988       39959.081      39951.005      40047.467      686.26712      6.6150431     -36.904714      174.67041      175.17143      175.49436     -605737.37    
     11500   244.52929      39957.977      39951.944      40036.093      691.85871      9.9009815     -50.28591       174.68431      175.18078      175.50701     -605607.86    
     11600   248.94372      40047.682      40056.217      39982.721      677.63539      1.6716532     -40.969068      174.65624      175.15451      175.56718     -605484.96    
     11700   252.96548      39994.521      40020.418      39943.014      661.85628      16.851192     -38.947737      174.66804      175.16547      175.58856     -605390.01    
     11800   257.40539      40003.399      39950.046      40106.292      656.46904      15.555989     -33.034477      174.68418      175.18737      175.57131     -605297.58    
     11900   260.64301      39924.676      40033.938      39929.924      653.38883     -3.1921919     -12.265886      174.68286      175.16846      175.63398     -605199.97    
     12000   264.73805      40136.399      40018.824      40036.356      643.62305     -24.439168     -16.027952      174.65042      175.17972      175.64755     -605096.17    
     12100   267.77142      39908.539      39981.861      39977.795      640.39526     -19.790705     -6.8491619      174.70091      175.18848      175.64175     -605022.02    
     12200   271.68187      39980.707      40034.154      40032.588      638.42581     -10.853584      5.489279       174.70287      175.18651      175.65139     -604946.37    
     12300   275.32498      40067.94       39954.822      39977.103      647.41782     -17.204169      2.6458382      174.6807       175.20288      175.67778     -604885.43    
     12400   277.14441      39961.817      40038.005      39984.553      642.06537     -5.2396372      8.6623289      174.71109      175.18972      175.6701      -604781.19    
     12500   279.34102      39986.364      39956.028      40056.936      635.67577     -3.0076619      7.8244417      174.71588      175.20873      175.66487     -604698.59    
     12555   282.0983       40071.062      39976.438      39979.398      643.79564     -3.0084618      7.1021119      174.70619      175.20876      175.67879     -604693.65    
Loop time of 940.218 on 360 procs for 3000 steps with 197740 atoms

Performance: 0.276 ns/day, 87.057 hours/ns, 3.191 timesteps/s
99.8% CPU use with 360 MPI tasks x no OpenMP threads

MPI task timing breakdown:
Section |  min time  |  avg time  |  max time  |%varavg| %total
---------------------------------------------------------------
Pair    | 826.77     | 889.52     | 919.64     |  39.4 | 94.61
Neigh   | 0.038203   | 0.041135   | 0.04972    |   0.7 |  0.00
Comm    | 2.8815     | 27.747     | 88.242     | 223.1 |  2.95
Output  | 0.98568    | 6.7431     | 12.181     | 122.2 |  0.72
Modify  | 7.8765     | 15.963     | 28.519     | 112.9 |  1.70
Other   |            | 0.2002     |            |       |  0.02

Nlocal:        549.278 ave         570 max         526 min
Histogram: 2 2 15 45 71 114 69 36 3 3
Nghost:        2795.69 ave        2900 max        2670 min
Histogram: 2 4 5 17 143 71 56 40 16 6
Neighs:              0 ave           0 max           0 min
Histogram: 360 0 0 0 0 0 0 0 0 0
FullNghs:        84255 ave       87606 max       80510 min
Histogram: 2 2 11 50 80 104 74 32 2 3

Total # of neighbors = 30331806
Ave neighs/atom = 153.39236
Neighbor list builds = 14
Dangerous builds = 0
unfix 1
fix                 1 all npt temp 300 300 .1 aniso 40000 40000 1 drag 1
run 5000
Per MPI rank memory allocation (min/avg/max) = 5.49 | 5.514 | 5.882 Mbytes
   Step          Temp           Pxx            Pyy            Pzz            Pxy            Pxz            Pyz             Lx             Ly             Lz           PotEng    
     12555   282.0983       40071.062      39976.439      39979.398      643.79564     -3.008438       7.1021051      174.70619      175.20876      175.67879     -604693.65    
     12600   282.90708      40002.658      40064.696      40005.8        641.85715      4.0100185     -12.913698      174.7126       175.20971      175.67699     -604674.78    
     12700   284.83867      39998.24       39907.969      39997.374      635.65699      11.461607      2.5227048      174.71705      175.23514      175.6788      -604626.82    
     12800   286.89981      40020.439      40074.77       40006.862      632.07126      11.250997     -6.8474756      174.72237      175.21009      175.68205     -604549.9     
     12900   288.21165      39962.359      39949.93       39969.843      636.31111      4.9199789     -21.528924      174.7374       175.23179      175.68026     -604500.13    
     13000   290.07718      40045.49       40034.716      40049.862      640.41534      20.932862     -18.80362       174.73287      175.23829      175.6674      -604440.93    
     13100   292.33953      39946.065      39968.467      39927.668      652.65608      22.229224     -29.450582      174.75344      175.23277      175.68249     -604431.25    
     13200   293.6258       40043.97       40033.948      40009.598      647.78931      42.523213     -52.552975      174.75093      175.23355      175.66843     -604376.19    
     13300   294.52218      39965.002      39958.074      40069.941      641.08925      27.19471      -45.509669      174.76317      175.24992      175.65186     -604338.84    
     13400   296.25557      40006.921      40014.084      39886.656      635.91354      36.657756     -50.987855      174.76076      175.23736      175.67544     -604331.17    
     13500   295.3439       40101.22       39984.674      40128.587      627.11669      46.518938     -36.140486      174.76319      175.24899      175.64331     -604242.31    
     13600   297.39017      39831.773      39966.282      39892.608      630.07978      19.634017     -45.537002      174.79406      175.2381       175.67894     -604283.48    
     13700   298.44515      40174.029      40085.171      40121.495      647.51368      23.386221     -49.21679       174.74373      175.23096      175.67529     -604234.74    
     13800   298.9667       39886.799      39909.633      39894.196      627.84001      47.287756     -37.466024      174.7797       175.24437      175.68654     -604264.45    
     13900   299.08057      40007.631      40068.783      40055.328      638.83441      34.117349     -41.533294      174.76757      175.22536      175.67769     -604211.5     
     14000   299.39331      40063.303      39950.614      39954.575      645.62202      29.674241     -40.424133      174.75594      175.24608      175.69477     -604216.95    
     14100   300.00002      39917.473      39981.763      40007.526      629.92759      17.71602      -48.359375      174.78638      175.23143      175.68427     -604223.74    
     14200   299.67036      40090.071      40056.886      40059.588      638.29864      6.7005921     -57.961541      174.7563       175.227        175.69145     -604189.92    
     14300   299.3133       39921.925      39944.416      39933.684      617.31773      17.506677     -50.64421       174.77091      175.22819      175.71577     -604205.38    
     14400   300.19308      40046.319      40074.933      40058.695      636.39929      19.969055     -67.997197      174.76823      175.19915      175.71585     -604189.26    
     14500   300.05361      39968.564      39975.947      39915.172      626.5931       10.914107     -60.622747      174.76811      175.21855      175.72767     -604210.77    
     14600   300.25318      40060.022      39949.8        40086.11       609.63998     -2.1587201     -18.616126      174.75933      175.22783      175.70189     -604202.92    
     14700   299.4263       39904.727      40046.843      39995.049      618.50913      15.468952     -34.385155      174.77669      175.19868      175.73198     -604198.78    
     14800   299.73094      40096.186      40026.884      39973.79       619.42153     -6.359887      -22.161702      174.74161      175.19248      175.75702     -604190.39    
     14900   300.20484      40013.614      39966.279      39984.371      602.81632     -18.304437     -23.087726      174.75653      175.20992      175.73703     -604209.76    
     15000   299.87724      39916.52       39989.916      40023.524      606.68118     -41.767843     -2.1101193      174.77896      175.21589      175.71426     -604206.52    
     15100   299.97303      40075.862      40023.879      40010.175      603.23147     -48.249331     -5.5494035      174.75493      175.20746      175.72808     -604192.17    
     15200   300.13716      39963.661      39994.556      39964.258      612.87181     -28.639724     -15.306406      174.76636      175.20708      175.73383     -604212.87    
     15300   299.98397      39995.106      39991.204      40032.704      607.59375     -51.271891     -8.4930384      174.758        175.21302      175.72915     -604204.71    
     15400   299.8961       40029.212      40032.24       39943.54       605.63739     -39.47377      -14.482526      174.7526       175.201        175.74464     -604200.49    
     15500   299.19718      39982.935      40009.861      40056.539      608.19534     -29.717648      2.9359884      174.77356      175.20854      175.71423     -604181.9     
     15600   300.2264       40069.875      39952.248      40008.094      625.26454     -22.582401     -0.1797176      174.75848      175.22275      175.71246     -604200.17    
     15700   300.03481      39914.575      40051.481      39924.477      628.41601      1.5518032      0.92133249     174.7761       175.2048       175.72115     -604202.22    
     15800   300.42029      40077.17       39968.984      40075.101      624.93358     -15.161421     -22.224931      174.76685      175.22205      175.68938     -604197.03    
     15900   299.43754      39953.45       39993.571      39960.347      618.37787     -7.7719528     -31.622972      174.77722      175.21652      175.69999     -604190.43    
     16000   299.53093      40052.514      40074.029      40005.873      632.67165      5.8895054     -45.956792      174.77169      175.2111       175.69317     -604175.65    
     16100   300.44603      39963.509      39934.791      40043.361      623.14398      12.446041     -44.570771      174.79486      175.22661      175.67043     -604209.81    
     16200   299.97846      39977.922      40037.883      39924.056      640.88287     -0.42765734    -24.957298      174.78308      175.21697      175.68423     -604195.2     
     16300   299.86066      40063.008      40005.864      40072.673      631.1          18.35458      -18.372876      174.77423      175.23518      175.65904     -604180.63    
     16400   299.70345      39931.181      39897.602      40000.351      629.0145       15.873876     -22.2194        174.80378      175.23167      175.66739     -604199.83    
     16500   300.24606      40037.179      40138.965      40006.345      634.03694      7.5583082     -13.438353      174.77397      175.19018      175.69586     -604178.46    
     16600   299.47665      40035.844      39907.014      39891.813      635.88381      17.394355     -22.892563      174.77386      175.22304      175.69768     -604183.91    
     16700   300.47         39913.82       40024.827      40137.771      614.54449     -3.841477      -8.43854        174.81396      175.21213      175.655       -604188.87    
     16800   299.82903      40038.209      40015.381      39973.208      635.48513      4.0619865     -3.4421522      174.77464      175.2066       175.70164     -604184.28    
     16900   299.47724      40031.17       39995.49       39917.286      627.14158      8.9407618     -30.376037      174.76289      175.20478      175.72012     -604177.14    
     17000   300.19661      39958.741      40024.858      40092.29       611.85641      8.6899932     -27.413652      174.7865       175.2074       175.69001     -604183.86    
     17100   300.20409      39999.157      39952.796      39978.035      628.65174      10.105597     -23.376757      174.76416      175.2139       175.71985     -604198.88    
     17200   300.29793      40035.868      40058.744      39976.007      628.94202      26.501896     -18.52689       174.75354      175.19349      175.73498     -604195.83    
     17300   300.43234      39948.619      39945.696      40015.708      617.84173      24.703389     -38.272513      174.77416      175.20059      175.71948     -604217.2     
     17400   299.37476      39998.256      40023.763      40014.876      609.37919      34.806539     -41.926214      174.75985      175.19534      175.7337      -604188.18    
     17500   300.21263      40039.808      40004.595      39983.003      603.58338      31.799463     -26.469219      174.74558      175.19602      175.74833     -604202.56    
     17555   300.12686      40032.889      40041.799      40040.104      606.96708      31.072493     -20.639433      174.7555       175.18823      175.73811     -604195.33    
Loop time of 1500.96 on 360 procs for 5000 steps with 197740 atoms

Performance: 0.288 ns/day, 83.387 hours/ns, 3.331 timesteps/s
99.8% CPU use with 360 MPI tasks x no OpenMP threads

MPI task timing breakdown:
Section |  min time  |  avg time  |  max time  |%varavg| %total
---------------------------------------------------------------
Pair    | 1326.5     | 1421.2     | 1461.6     |  46.3 | 94.69
Neigh   | 0.074011   | 0.079339   | 0.095651   |   1.0 |  0.01
Comm    | 6.6551     | 43.706     | 134.53     | 261.3 |  2.91
Output  | 0.97108    | 11.382     | 20.971     | 167.4 |  0.76
Modify  | 9.2366     | 24.271     | 40.832     | 154.8 |  1.62
Other   |            | 0.3215     |            |       |  0.02

Nlocal:        549.278 ave         565 max         529 min
Histogram: 3 4 9 36 62 94 88 41 20 3
Nghost:         2803.5 ave        2904 max        2692 min
Histogram: 3 7 8 99 81 50 38 20 41 13
Neighs:              0 ave           0 max           0 min
Histogram: 360 0 0 0 0 0 0 0 0 0
FullNghs:      84215.7 ave       86405 max       80916 min
Histogram: 3 2 12 26 52 74 85 66 29 11

Total # of neighbors = 30317650
Ave neighs/atom = 153.32077
Neighbor list builds = 27
Dangerous builds = 0
unfix 1


variable tmp2 equal "lz"
variable Lz2 equal ${tmp2}
variable Lz2 equal 175.738112988076

variable srate equal -1.0e9
variable srate1 equal "v_srate / 1.0e12"
variable srate2 equal "v_srate1 * 100"

variable        restart_num equal "20000"
restart         ${restart_num} Sn.*
restart         20000 Sn.*

variable stress equal "pzz*0.0001"
variable strain equal "(lz-v_Lz2)/v_Lz2"

fix def1 all print 100 "${strain} ${stress}" file beta_100.def.txt screen no

fix     1 all npt temp 300 300 .1 y 40000 40000 1 x 40000 40000 1 drag 1
fix     2 all deform 1 z erate ${srate2} remap x units box
fix     2 all deform 1 z erate -0.1 remap x units box
run     400
Per MPI rank memory allocation (min/avg/max) = 5.49 | 5.514 | 5.882 Mbytes
   Step          Temp           Pxx            Pyy            Pzz            Pxy            Pxz            Pyz             Lx             Ly             Lz           PotEng    
     17555   300.12686      40032.889      40041.799      40040.104      606.96712      31.072466     -20.639406      174.7555       175.18823      175.73811     -604195.33    
     17600   300.33682      41549.473      41534.675      44719.352      507.94922      30.338618     -25.53196       174.8278       175.25995      174.94729     -603709.68    
     17700   302.68537      41352.969      41261.094      52825.492      324.14998      20.107789     -31.713914      175.48468      175.89234      173.18991     -603220.96    
     17800   305.29623      41522.338      41442.812      61604.654      174.93532      17.539493     -31.066112      176.11035      176.49396      171.43253     -602411.36    
     17900   306.27967      41750.043      41666.971      71208.688      50.639122      4.3444848     -32.921089      176.74326      177.08753      169.67515     -601246.14    
     17955   306.24432      41817.32       41741.85       76770.504     -4.1562171      4.3032915     -22.339033      177.0999       177.42499      168.70859     -600458.47    
Loop time of 121.651 on 360 procs for 400 steps with 197740 atoms

Performance: 0.284 ns/day, 84.480 hours/ns, 3.288 timesteps/s
99.8% CPU use with 360 MPI tasks x no OpenMP threads

MPI task timing breakdown:
Section |  min time  |  avg time  |  max time  |%varavg| %total
---------------------------------------------------------------
Pair    | 106.92     | 114.63     | 119.09     |  14.2 | 94.23
Neigh   | 0.025187   | 0.026812   | 0.032496   |   0.5 |  0.02
Comm    | 0.41862    | 3.7241     | 10.951     |  79.3 |  3.06
Output  | 0.83319    | 1.2499     | 1.637      |  20.1 |  1.03
Modify  | 0.51329    | 1.9883     | 3.1593     |  48.1 |  1.63
Other   |            | 0.02672    |            |       |  0.02

Nlocal:        549.278 ave         566 max         525 min
Histogram: 2 0 8 19 84 68 83 64 25 7
Nghost:        2902.03 ave        2960 max        2786 min
Histogram: 2 4 4 4 12 44 139 122 23 6
Neighs:              0 ave           0 max           0 min
Histogram: 360 0 0 0 0 0 0 0 0 0
FullNghs:      85196.5 ave       88001 max       81260 min
Histogram: 2 0 8 22 83 69 91 57 25 3

Total # of neighbors = 30670746
Ave neighs/atom = 155.10643
Neighbor list builds = 9
Dangerous builds = 0
fix     2 all deform 1 z erate ${srate1} remap x units box
fix     2 all deform 1 z erate -0.001 remap x units box
run 500000
Per MPI rank memory allocation (min/avg/max) = 5.49 | 5.515 | 5.882 Mbytes
   Step          Temp           Pxx            Pyy            Pzz            Pxy            Pxz            Pyz             Lx             Ly             Lz           PotEng    
     17955   306.24432      41863.594      41786.501      76916.444     -6.6595845      4.3193772     -22.313419      177.0999       177.42499      168.70859     -600432.55    
     18000   306.32426      40042.989      40051.525      75009.566      61.411477      2.5035016     -1.0664613      177.33989      177.65495      168.701       -600815.46    
     18100   305.12591      39868.258      39911.514      73970.972      232.3594       14.252887     -39.513062      177.36347      177.67124      168.68413     -600858.79    
     18200   305.55108      40109.736      40037.822      73373.408      346.36809      8.5589287     -23.287571      177.32334      177.64041      168.66725     -600857.91    
     18300   306.88148      39936.021      39972.771      72417.799      479.65932     -3.8887501     -6.1281527      177.34169      177.65052      168.65038     -600960.28    
     18400   304.49636      40063.445      40053.894      71739.086      576.32568     -5.0740327     -18.51354       177.31567      177.64907      168.63351     -600928.1     
     18500   302.17883      39984.845      39952.502      70951.988      621.6911       17.152545      1.8260859      177.32971      177.65667      168.61664     -600916.14    
     18600   298.52502      40005.993      40061.936      70268.538      667.53513      1.7817232     -12.065891      177.34038      177.6385       168.59977     -600815.86    
     18700   296.30208      39989.245      39984.412      69625.21       686.50826      5.2741824     -24.223876      177.34294      177.66419      168.5829      -600725.09    
     18800   294.65091      40015.273      40042.449      69143.634      708.43876      39.327788     -10.517369      177.34269      177.68084      168.56603     -600621.06    
     18900   293.99926      39995.872      39955.617      68779.716      726.51453      22.442069     -30.950069      177.36332      177.69334      168.54916     -600542.13    
     19000   294.49739      39987.72       40004.647      68727.295      716.92329      41.046265     -38.790584      177.37036      177.69832      168.53229     -600474.01    
     19100   296.02367      39998.001      40019.583      68977.619      731.07137      47.574492     -38.043355      177.36594      177.71293      168.51542     -600437.41    
     19200   299.11284      40029.906      40040.226      69503.931      700.55887      38.416008     -54.119354      177.36453      177.71328      168.49855     -600453.18    
     19300   301.88609      39964.666      39892.532      70132.168      669.71121      50.017021     -33.189551      177.37221      177.74283      168.48168     -600519.11    
     19400   303.17151      40058.386      40128.43       71031.604      619.92024      46.00151      -44.593547      177.35851      177.72698      168.4648      -600547.44    
     19500   305.68936      39938.727      39899.566      71722.819      575.95423      38.975407     -36.144989      177.37935      177.74825      168.44793     -600675.17    
     19600   305.50676      40074.841      40068.878      72615.69       489.49376      55.917348     -57.988544      177.37509      177.72536      168.43106     -600692.23    
     19700   303.64432      39946.061      39940.26       73313.94       413.60799      40.523365     -46.395626      177.40542      177.75074      168.41419     -600720.95    
     19800   302.18896      40063.445      40059.247      74196.242      283.49835      69.054553     -47.133753      177.40887      177.738        168.39732     -600699.48    
     19900   300.12724      39941.022      39987.082      74831.672      196.09006      54.81528      -58.970385      177.44704      177.7601       168.38045     -600698.97    
     20000   298.63992      40072.04       40006.938      75444.987      97.082298      58.141073     -56.786663      177.45418      177.7639       168.36358     -600650.5     
     20100   297.36308      39946.316      40033.086      75833.459      32.814106      73.424009     -44.535677      177.49777      177.76375      168.34671     -600593.52    
     20200   298.05967      40063.086      39953.006      76070.571     -1.600487       62.433942     -47.504312      177.50429      177.7795       168.32984     -600564.09    
     20300   299.39545      39917.248      40028.443      76014.718      2.3053809      68.638985     -64.331064      177.53407      177.77538      168.31297     -600562.56    
     20400   300.00755      40095.32       39932.993      75693.648      57.786543      69.490773     -61.207421      177.52095      177.78677      168.2961      -600536.62    
     20500   300.67011      39880.963      40069.005      75118.872      139.6618       58.468075     -73.161844      177.55391      177.7639       168.27923     -600536.03    
     20600   302.30272      40079.074      39967.093      74431.713      238.55549      89.030582     -76.832309      177.52525      177.77878      168.26235     -600569.44    
     20700   302.26324      39992.59       40018.968      73669.344      347.06121      82.72399      -60.534522      177.54496      177.76248      168.24548     -600588.41    
     20800   302.90958      39952.183      39978.139      72918.633      449.49757      76.347235     -68.327461      177.55074      177.76281      168.22861     -600623.33    
     20900   300.36502      40101.451      39989.404      72253.163      519.44097      80.162827     -58.19474       177.52286      177.77473      168.21174     -600558.89    
     21000   298.96951      39932.575      40041.516      71603.438      582.20719      80.412757     -75.830435      177.5479       177.76513      168.19487     -600522.11    
     21100   297.57345      40058.078      39978.693      71019.022      626.91787      80.530276     -98.518081      177.54189      177.78086      168.178       -600447.91    
     21200   296.45794      39975.856      39998.913      70437.787      652.86824      55.531998     -63.531739      177.56086      177.78673      168.16113     -600374       
     21300   295.74894      39983.416      40029.727      70062.033      651.29805      68.971208     -62.59958       177.55903      177.79824      168.14426     -600288.09    
     21400   295.08482      40021.045      39956.56       69908.178      659.49819      72.258472     -66.14913       177.55168      177.83274      168.12739     -600208.85    
     21500   296.01448      39982.987      40077.897      69971.402      643.56797      37.227769     -55.327373      177.56694      177.82725      168.11052     -600163.41    
     21600   297.32979      39975.403      39937.56       70168.897      617.0642       58.09905      -46.594021      177.56776      177.85914      168.09365     -600150.23    
     21700   299.32855      40041.287      40075.588      70730.012      606.0592       54.557562     -45.24545       177.55879      177.85116      168.07677     -600132.14    
     21800   302.33701      39930.753      39943.852      71196.842      580.84048      69.424781     -56.605676      177.57138      177.87197      168.0599      -600211.62    
     21900   303.69949      40065.446      40013.531      71917.47       542.09089      64.198077     -72.328685      177.54905      177.87407      168.04303     -600247.14    
     22000   303.19865      39986.53       39996.648      72500.836      495.54818      70.081791     -75.425075      177.57291      177.88264      168.02616     -600285.58    
     22100   303.4128       40050.769      39991.651      73124.305      458.4322       85.863515     -60.803071      177.58193      177.88584      168.00929     -600324.99    
     22200   302.67332      39968.12       39998.969      73769.108      349.72182      80.68463      -76.560599      177.60067      177.89383      167.99242     -600347.94    
     22300   301.35123      40031.937      40018.681      74478.95       276.30138      84.146607     -58.622754      177.6034       177.89624      167.97555     -600331.06    
     22400   299.67903      39942.172      40004.487      74966.037      165.38603      99.914963     -87.26628       177.6372       177.90589      167.95868     -600317.14    
     22500   298.74923      40078.739      40001.932      75504.996      80.411968      100.90597     -82.949804      177.6283       177.92449      167.94181     -600269.26    
     22600   299.14893      39931.351      40011.74       75685.5        56.107371      96.504506     -77.515502      177.65946      177.9359       167.92494     -600260.57    
     22700   299.06564      40002.69       39986.116      75703.924      30.149078      92.018539     -81.161458      177.6635       177.95426      167.90807     -600222.76    
     22800   299.34187      40051.988      39980.076      75574.597      57.074837      90.325256     -78.800874      177.66794      177.95376      167.8912      -600191.16    
     22900   300.6394       39917.986      40020.358      75119.991      127.08454      92.224196     -72.305782      177.69608      177.94505      167.87432     -600202.96    
     23000   300.67269      40088.789      39932.583      74600.34       193.70194      89.836034     -65.159592      177.66879      177.96767      167.85745     -600182.61    
     23100   301.19248      39942.49       40068.03       73978.63       288.45479      127.2444      -55.394795      177.69227      177.9365       167.84058     -600188.77    
     23200   301.1247       40002.961      39971.779      73282.95       372.48262      78.062857     -70.738101      177.68356      177.94979      167.82371     -600192.58    
     23300   300.83502      40013.953      40020.072      72729.893      425.66209      82.800295     -53.001723      177.68179      177.94432      167.80684     -600179.78    
     23400   300.48428      39949.182      39995.377      72171.67       473.96148      88.068638     -44.496352      177.69249      177.93866      167.78997     -600168.09    
     23500   298.26526      40071.465      40002.444      71644.044      511.32837      91.140396     -63.336348      177.66698      177.95822      167.7731      -600087.46    
     23600   297.57862      39950.356      40029.739      71132.031      548.49879      79.993056     -66.543173      177.68723      177.96446      167.75623     -600033.15    
     23700   297.39478      40048.015      39991.373      70731.968      576.59355      86.391608     -56.916274      177.67417      177.98372      167.73936     -599971.01    
     23800   296.5002       39970.585      39954.883      70395.937      573.53225      66.247007     -68.86832       177.68593      178.00285      167.72249     -599903.1     
     23900   296.64749      40016.419      40097.39       70307.102      589.04594      73.436918     -54.585412      177.68016      178.00206      167.70562     -599834.36    
     24000   297.54399      40005.784      39867.795      70278.16       588.06314      80.923087     -54.702531      177.67644      178.04757      167.68875     -599820.52    
     24100   298.99527      40024.786      40103.91       70529.646      591.34031      75.973878     -74.495928      177.68877      178.01739      167.67187     -599789.17    
     24200   300.66739      39946.297      39978.308      70777.339      554.03847      51.321106     -42.777648      177.69481      178.04304      167.655       -599823.27    
     24300   301.27546      40090.808      39999.365      71291.433      524.37771      47.917908     -58.5508        177.68195      178.04549      167.63813     -599824.74    
     24400   302.64198      39925.164      39991.198      71654.729      485.35814      62.089152     -40.324574      177.71219      178.05205      167.62126     -599898.14    
     24500   302.69277      40058.997      40003.341      72170.793      449.96858      34.18343      -54.399239      177.69906      178.06739      167.60439     -599917.56    
     24600   301.69443      39994.446      40010.012      72615.201      374.42971      48.935277     -37.421144      177.71368      178.07307      167.58752     -599926.25    
     24700   302.27251      39986.344      40010.41       72974.816      325.2084       70.591939     -19.741586      177.72016      178.08369      167.57065     -599965.3     
     24800   300.98295      40019.779      39977.547      73355.731      263.17435      39.034353     -28.319056      177.72122      178.11139      167.55378     -599956.66    
     24900   300.73202      40000.517      40011.236      73593.693      233.64417      20.060168     -19.82606       177.73767      178.11989      167.53691     -599962.77    
     25000   299.59862      39992.06       39988.024      73787.134      168.37216      36.35671      -7.8909721      177.76394      178.12246      167.52004     -599937.73    
     25100   299.29863      39987.57       39990.267      73856.833      147.92196      35.664074     -12.227821      177.77754      178.13426      167.50317     -599911.32    
     25200   299.42122      40073.59       40007.141      73777.386      135.01199      21.837175     -1.2648095      177.78491      178.13617      167.48629     -599883.2     
     25300   299.70468      39912.688      39976.228      73448.732      129.44366      17.141016      5.7120412      177.82821      178.12787      167.46942     -599882.45    
     25400   300.65428      40061.104      40009.958      73075.284      184.1629       25.356484     -12.988921      177.82011      178.12064      167.45255     -599865.28    
     25500   301.08932      39972.713      40009.104      72539.559      244.94801      23.041443      32.350091      177.83815      178.11503      167.43568     -599875.08    
     25600   301.11077      40019.62       39961.767      71942.522      307.35083      21.602734      14.577312      177.84411      178.1191       167.41881     -599880.64    
     25700   300.89788      39982.819      40021.317      71340.02       356.6236       28.035283     -0.5812871      177.86442      178.10296      167.40194     -599879.35    
     25800   300.11425      40005.526      40009.991      70682.959      403.62707      36.495012     -1.0158019      177.87227      178.09654      167.38507     -599854.75    
     25900   299.24756      39992.542      40006.991      70037.869      464.09866      50.533676      17.285088      177.88429      178.09685      167.3682      -599825.16    
     26000   298.54469      39990.945      40026.087      69511.87       466.65254      53.572033      19.205679      177.89263      178.09427      167.35133     -599776.01    
     26100   298.56678      40068.866      39967.32       69011.476      506.15389      48.810221      26.581129      177.89641      178.10857      167.33446     -599737.17    
     26200   298.89888      39925.391      40003.716      68565.298      524.71583      45.877255      42.198873      177.93591      178.09485      167.31759     -599714.18    
     26300   296.79138      40050.71       40055.308      68374.499      496.22865      68.150521      52.324673      177.93035      178.09876      167.30072     -599609.96    
     26400   298.59895      39971.108      39932.141      68057.927      508.1865       52.349123      34.556217      177.94212      178.12575      167.28384     -599624.97    
     26500   299.20673      39994.439      40078.92       67989.708      506.14177      43.200873      31.344744      177.952        178.1178       167.26697     -599594.38    
     26600   300.34299      39973.484      39964.833      67948.838      498.6935       47.670907      33.065325      177.95446      178.14371      167.2501      -599608.3     
     26700   300.07377      40035.727      40042.647      68068.396      473.43788      31.728731      19.806421      177.95209      178.14701      167.23323     -599579.37    
     26800   301.06534      39980.161      39942.397      68234.199      459.73734      32.009494      16.206352      177.97037      178.16128      167.21636     -599615.29    
     26900   301.78126      40030.579      40086.125      68464.337      433.76495      41.52133       15.120111      177.97281      178.1525       167.19949     -599639.01    
     27000   301.83074      39973.529      39874.266      68562.765      385.24264      41.08557       24.695489      177.99661      178.18107      167.18262     -599684.9     
     27100   301.8389       40039.357      40115.46       68882.049      313.12071      33.268089     -4.3362642      178.01247      178.13618      167.16575     -599676.89    
     27200   301.01312      39928.796      39953.649      68947.893      285.70296      12.688648      9.0378672      178.03631      178.16512      167.14888     -599699.43    
     27300   300.84838      40126.232      40016.3        69160.481      219.97541      16.814816     -0.3223699      178.02167      178.17285      167.13201     -599689.68    
     27400   300.64329      39839.96       39952.087      69069.077      200.28746     -1.855195       32.085673      178.08659      178.1813       167.11514     -599726.49    
     27500   299.80754      40113.295      40074.645      69246.538      153.25934     -19.566969      21.220546      178.05503      178.1797       167.09826     -599664.6     
     27600   299.35411      39973.567      39891.222      68934.17       145.8521      -14.111693      7.4443136      178.09272      178.20862      167.08139     -599677.03    
     27700   300.12716      39977.918      40125.371      68713.977      122.2291       16.511147      7.6937627      178.11482      178.17619      167.06452     -599656.31    
     27800   299.87574      40032.199      39879.871      68306.221      132.84297     -27.68036      -11.124808      178.11563      178.21595      167.04765     -599656.96    
     27900   300.81425      39953.128      40082.833      67948.23       165.22514     -9.2120471      1.492454       178.13109      178.19222      167.03078     -599649.14    
     28000   301.34265      40000.045      39920.162      67396.158      178.52896     -0.41031641     1.626009       178.12516      178.22237      167.01391     -599668.99    
     28100   300.19756      40032.75       40045.761      66903.659      210.88499     -13.679316     -4.0947156      178.12925      178.20653      166.99704     -599631.51    
     28200   301.30442      39920.731      40023.145      66184.655      249.00023      11.568598     -11.353858      178.14394      178.21113      166.98017     -599669.8     
     28300   300.51585      40025.116      39964.675      65614.341      289.32771     -7.6147338      7.8586363      178.1226       178.23901      166.9633      -599650.29    
     28400   299.34589      40009.51       40041.73       65073.391      308.90217      13.787799      3.9235044      178.12624      178.24081      166.94643     -599609.83    
     28500   298.32432      39960.642      40008.094      64542.529      325.65926      22.669686      26.220169      178.1249       178.26791      166.92956     -599566.95    
     28600   299.80433      40084.312      39981.442      64071.689      338.27197     -1.9368627     -12.749099      178.10161      178.29321      166.91269     -599563.75    
     28700   299.26737      39915.822      40023.04       63601.522      392.88405      7.8579054     -15.198363      178.12579      178.30196      166.89581     -599542.82    
     28800   298.74979      40098.48       39961.794      63266.272      382.4109       37.784        -21.261485      178.10463      178.32921      166.87894     -599492.83    
     28900   299.21116      39926.229      40062.696      62949.768      390.21407      58.925182     -31.206922      178.13107      178.32416      166.86207     -599479.52    
     29000   300.36026      39975.623      39969.638      62704.551      393.75954      44.861016     -23.923285      178.10894      178.36433      166.8452      -599484.62    
     29100   299.96293      40085.216      39961.326      62710.483      381.41154      77.037908     -20.128979      178.08591      178.39074      166.82833     -599456.35    
     29200   301.29153      39886.258      40056.104      62630.117      374.54352      93.171612      6.2780585      178.11743      178.38516      166.81146     -599496.02    
     29300   300.88605      40122.265      39991.744      62736.985      349.35452      77.06563      -44.47666       178.08094      178.42057      166.79459     -599494.09    
     29400   301.55614      39941.831      39963.319      62743.445      332.18532      97.760782     -59.567799      178.1092       178.42349      166.77772     -599540.83    
     29500   301.45747      40020.344      40083.551      62817.494      284.04988      91.651937     -68.627933      178.10768      178.42063      166.76085     -599545.36    
     29600   301.27708      39989.955      39921.347      62787.549      252.87103      86.803733     -61.824477      178.10626      178.46815      166.74398     -599584.86    
     29700   301.19759      40015.209      40069.63       62886.739      238.78253      86.05241      -55.527355      178.11358      178.45879      166.72711     -599586.24    
     29800   300.46327      39989.238      39954.227      62921.817      210.69235      112.75377     -42.529958      178.11922      178.48181      166.71024     -599589.2     
     29900   300.3407       40027.622      40051.101      62914.061      200.12621      118.53174     -44.978776      178.11332      178.48928      166.69336     -599581.99    
     30000   299.40523      39979.954      39958.383      62794.505      146.24707      115.69287     -43.813687      178.12655      178.51592      166.67649     -599574.14    
     30100   299.90943      40037.568      40014.451      62622.098      150.0367       101.2571      -33.748206      178.14055      178.50456      166.65962     -599563.63    
     30200   300.10403      39927.627      40001.217      62344.546      132.94936      91.59424      -16.70061       178.17397      178.50842      166.64275     -599566.79    
     30300   300.32433      40027.582      40018.364      62124.083      155.8388       108.87941     -15.258317      178.15795      178.52168      166.62588     -599548.35    
     30400   300.53807      40025.271      39951.172      61655.095      160.85319      106.77376     -21.374033      178.15861      178.54728      166.60901     -599564.13    
     30500   300.36862      39999.715      40029.58       61223.647      183.3346       41.072975     -24.714705      178.17294      178.53058      166.59214     -599556.06    
     30600   300.40254      39980.677      40021.481      60659.952      220.84201      48.656846     -36.520388      178.17697      178.54755      166.57527     -599564.11    
     30700   300.97416      40014.853      39941.218      60147.303      253.0943       56.408357     -41.943536      178.16059      178.5708       166.5584      -599581.17    
     30800   300.5431       40001.418      40047.35       59716.688      253.66567      49.93319      -52.666287      178.17568      178.55301      166.54153     -599563.68    
     30900   299.69523      39966.822      39963.164      59201.319      307.2497       57.607997     -25.197074      178.17704      178.58137      166.52466     -599554.03    
     31000   299.09024      40075.191      40025.867      58838.2        311.36419      81.918867     -43.346975      178.16637      178.58139      166.50778     -599506.87    
     31100   300.04262      39895.325      39974.938      58334.06       296.15788      111.5992      -82.941405      178.20308      178.58288      166.49091     -599523.91    
     31200   298.99312      40113.745      40048.587      58147.844      294.2618       129.76898     -55.219646      178.17009      178.5946       166.47404     -599449.18    
     31300   299.2073       39924.126      39896.512      57673.22       304.44459      127.59746     -46.207842      178.21227      178.61288      166.45717     -599457.04    
     31400   299.11369      40052.098      40148.185      57583.504      297.9797       129.39635     -59.450826      178.21449      178.58287      166.4403      -599397.45    
     31500   300.04469      39982.965      39890.631      57340.834      320.1077       119.44106     -62.124915      178.21701      178.63263      166.42343     -599432.4     
     31600   300.56522      40037.81       40041.51       57396.856      281.83627      107.89239     -44.878129      178.22036      178.60969      166.40656     -599409.54    
     31700   299.42598      39992.765      40001.8        57288.764      287.36734      110.71741     -52.631094      178.24686      178.62059      166.38969     -599395.79    
     31800   301.52366      39971.706      40012.458      57331.15       270.32836      103.18521     -56.181937      178.24488      178.63081      166.37282     -599443.3     
     31900   301.29075      40060.43       39945.341      57487.145      249.0153       104.59125     -29.568116      178.23658      178.64273      166.35595     -599449.09    
     32000   300.78941      39972.06       40070.239      57600.062      243.24063      100.35853     -34.723853      178.2647       178.61948      166.33908     -599446.07    
     32100   300.57434      39987.17       39978.979      57718.291      242.78527      97.829386     -37.799302      178.2749       178.63185      166.32221     -599460.9     
     32200   300.38837      40033.416      39998.889      57863.129      182.79492      81.781595     -38.59003       178.27596      178.63429      166.30533     -599456.01    
     32300   300.04608      39961.159      40001.048      57936.474      145.02126      80.068385     -2.076069       178.29087      178.63703      166.28846     -599453.18    
     32400   299.66626      40021.566      39998.513      57991.564      103.66513      100.90591     -12.775752      178.30168      178.63919      166.27159     -599430.93    
     32500   300.33932      39966.307      40000.46       58015.424      91.713733      73.440583      4.9678534      178.31278      178.64074      166.25472     -599431.65    
     32600   300.34062      40012.144      39994.452      57951.756      109.9629       67.609896     -2.2866905      178.30763      178.65749      166.23785     -599424.67    
     32700   299.56782      40022.963      39977.599      57904.747      114.21961      64.727287     -20.434356      178.31816      178.66146      166.22098     -599398.47    
     32800   300.80767      39979.009      40011.997      57656.706      141.27658      47.433679     -18.712097      178.34308      178.64421      166.20411     -599417.22    
     32900   300.7941       39985.485      39971.096      57389.554      146.57241      66.296575     -0.060654982    178.35969      178.63927      166.18724     -599419.18    
     33000   299.74403      40009.142      40057.132      57235.199      152.23389      48.268056     -33.195814      178.35619      178.63154      166.17037     -599379.69    
     33100   300.28046      39991.83       39945.668      56875.421      197.6694       48.074293     -64.076825      178.36392      178.64918      166.1535      -599395.37    
     33200   300.29498      40019.207      40027.606      56618.321      175.28091      26.938849     -59.653746      178.37212      178.63315      166.13663     -599378.49    
     33300   299.84858      39975.242      40005.267      56248.994      214.18075      29.71828      -74.483489      178.38293      178.63934      166.11976     -599366       
     33400   300.12203      40001.735      39973.219      55919.525      259.36354      48.596067     -22.648692      178.38393      178.65251      166.10288     -599356.46    
     33500   299.12705      40012.987      39991.463      55685.321      266.21427      38.121705     -41.847216      178.39774      178.65251      166.08601     -599313.58    
     33600   299.78353      39958.479      40060.321      55463.699      263.40698      45.936013     -44.075166      178.40491      178.64651      166.06914     -599300.29    
     33700   299.27498      40040.004      39922.796      55228.252      299.41793      20.703132     -47.555706      178.39369      178.68338      166.05227     -599274.53    
     33800   299.10968      40006.32       40021.412      55118.562      279.77509      46.58775      -55.402877      178.41045      178.66993      166.0354      -599234.85    
     33900   299.84875      39948.937      40010.416      55003.704      278.83066      32.391126     -61.072615      178.4328       178.66726      166.01853     -599228.87    
     34000   299.93207      40021.875      40020.482      55043.672      299.66346      48.550143     -46.587906      178.41432      178.68274      166.00166     -599204.68    
     34100   299.81834      40000.803      39994.668      54989.707      247.10567      80.374639     -78.838266      178.41041      178.71325      165.98479     -599203.92    
     34200   300.38724      40013.416      39950.768      54918.152      263.81212      31.401947     -64.014195      178.42058      178.72212      165.96792     -599215.3     
     34300   300.26756      40002.562      40112.898      55057.127      268.52516      23.477977     -59.506992      178.43393      178.6982       165.95105     -599199.91    
     34400   300.62792      39982.026      39896.654      55048.048      263.36912      10.363019     -77.637815      178.42949      178.74219      165.93418     -599232.6     
     34500   299.79036      40074.508      40058.75       55289.885      204.23943      47.570475     -53.764616      178.4282       178.72715      165.9173      -599193.83    
     34600   300.29974      39915.951      39980.388      55280.236      173.06258      56.347601     -50.108932      178.46205      178.73783      165.90043     -599231.34    
[...]
    138900   299.48142      39955.715      40035.038      44849.213     -182.19073      69.359933      85.514866      185.58537      190.19795      148.30413     -596635.49    
    139000   300.05947      40005.191      40035.882      44820.93      -128.08872      6.8437906      79.808851      185.5909       190.21225      148.28726     -596639.3     
    139100   300.52999      39986.227      39930.644      44785.556     -164.72233     -8.0657818      97.818534      185.58508      190.25032      148.27039     -596658.53    
    139200   300.27852      40041.845      40061.962      44861.321     -165.94417      1.1401267      72.013223      185.58422      190.24598      148.25352     -596642.87    
    139300   299.65948      39949.547      39961.861      44811.197     -123.44361      1.065877       98.842304      185.60365      190.27062      148.23664     -596650.86    
    139400   299.57134      40071.547      40065.327      44927.508     -133.17423     -7.975695       22.116719      185.5906       190.26992      148.21977     -596620.16    
    139500   299.6799       39922.577      39939.338      44763.573     -124.19289      27.354882      55.210388      185.62089      190.30801      148.2029      -596643.02    
    139600   299.73952      40070.58       40086.494      44934.699     -150.63122     -19.135231      86.622934      185.59961      190.31011      148.18603     -596609.59    
    139700   300.52839      39955.163      39899.683      44818.014     -177.52986      9.4804615      130.81203      185.6126       190.35118      148.16916     -596653.33    
    139800   300.6617       40059.09       40094.079      44953.488     -174.967        20.743896      75.688885      185.61307      190.32954      148.15229     -596638.94    
    139900   300.59233      39890.795      39935.823      44749.185     -169.43034      56.458838      25.371563      185.64222      190.36915      148.13542     -596684.97    
    140000   298.65431      40144.678      40073.228      44912.757     -178.78271      82.282925      96.596611      185.61345      190.38133      148.11855     -596618.07    
    140100   300.20491      39857.33       39935.023      44722.174     -214.68632      39.455576      123.30388      185.64948      190.4148       148.10168     -596672.46    
    140200   299.93224      40113.049      40042.721      44923.578     -194.68802     -9.7609834      120.04693      185.61547      190.42015      148.08481     -596624.31    
    140300   300.08288      39913.609      39979.724      44769.019     -193.02245     -7.2109179      114.84663      185.64867      190.44692      148.06794     -596649.45    
    140400   300.08065      40058.831      40024.874      44767.908     -174.21758      31.750516      93.900988      185.63642      190.46387      148.05107     -596638.33    
    140500   300.33979      39971.674      39928.83       44763.551     -173.77983      12.464968      96.906891      185.65072      190.48066      148.03419     -596654.45    
    140600   300.16093      40027.107      40092.014      44814.723     -239.85163      24.333906      52.181823      185.66172      190.4654       148.01732     -596638.54    
    140700   299.50953      39933.69       39993.471      44705.019     -201.0966      -22.612245      59.602888      185.67059      190.51361      148.00045     -596650.24    
    140800   300.42044      40050.46       39991.155      44743.948     -206.62349     -33.059205      45.305859      185.63361      190.55361      147.98358     -596655.23    
    140900   299.86233      40002.72       39948.875      44728.17      -170.03142     -20.980403      80.021051      185.63953      190.58317      147.96671     -596652.69    
    141000   299.94504      40025.017      40037.416      44798.222     -160.7015       1.6965321      5.1638667      185.65869      190.56567      147.94984     -596639.83    
    141100   300.06646      39946.501      39982.642      44775.393     -187.37561      25.755072      34.29165       185.68387      190.5762       147.93297     -596653.19    
    141200   299.58487      40062.8        40031.48       44855.812     -174.16083      10.278119      52.035923      185.67619      190.58826      147.9161      -596627.12    
    141300   300.12445      39979.564      39950.671      44788.218     -169.98891     -15.520547      35.104628      185.70325      190.60196      147.89923     -596652.02    
    141400   300.15758      39975.844      40071.649      44792.286     -140.72807     -12.575327      32.358441      185.71644      190.59467      147.88236     -596643.04    
    141500   299.6548       40048.76       39956.039      44734.893     -186.19845      48.649556      22.234038      185.71084      190.63294      147.86549     -596639.94    
    141600   300.32393      39963.523      39990.008      44713.316     -196.53082      27.526927      68.369882      185.73643      190.62746      147.84862     -596654.08    
    141700   299.43015      39982.742      40116.211      44804.379     -222.83222      13.558509      71.429718      185.7417       190.63316      147.83174     -596625.32    
    141800   300.33728      39994.035      39889.359      44694.377     -216.62293      16.820024      93.641318      185.71334      190.71441      147.81487     -596661.34    
    141900   299.72732      40075.038      40024.073      44795.675     -212.62762     -0.401607       60.714574      185.70954      190.71404      147.798       -596629.8     
    142000   300.27375      39957.44       39987.6        44789.846     -145.3108      -16.272613      39.388924      185.74896      190.7041       147.78113     -596647.81    
    142100   300.94164      40032.779      40022.709      44795.26      -160.68263      0.25530513     32.396049      185.75812      190.69457      147.76426     -596658.07    
    142200   300.92681      39908.969      39954.638      44729.387     -166.88139      41.082193      11.617618      185.78808      190.70143      147.74739     -596682.26    
    142300   298.89571      40086.162      40135.898      44891.112     -195.77356      2.5826939      24.887826      185.76757      190.71147      147.73052     -596617.77    
    142400   299.65837      39901.794      39847.266      44686.938     -166.19465      8.5686909      53.497143      185.77925      190.78646      147.71365     -596664.51    
    142500   300.51284      40107.89       40129          44880.132     -210.45048      29.026325      33.575299      185.74907      190.77087      147.69678     -596627.3     
    142600   300.1406       39924.554      39914.481      44623.612     -191.85554     -26.795404      39.208689      185.77814      190.825        147.67991     -596672.86    
    142700   300.03084      40070.883      40032.833      44760.412     -151.28875      16.511592      25.486887      185.7703       190.81689      147.66304     -596648.66    
    142800   299.38243      39948.359      39987.32       44727.465     -154.40951      26.142865      22.10268       185.80591      190.82736      147.64616     -596644.47    
    142900   300.47259      39991.403      40043.506      44745.115     -155.91128     -17.416243      21.842185      185.80315      190.8381       147.62929     -596649.2     
    143000   300.57579      40015.62       39937.006      44740.019     -121.13609     -12.388966      45.898597      185.79094      190.87536      147.61242     -596659.1     
    143100   299.64355      40017.162      40009.282      44788.167     -169.43028      15.461875     -18.834758      185.80313      190.87588      147.59555     -596635.42    
    143200   300.13933      39989.269      40048.316      44762.653     -195.85825     -4.3995642     -12.378679      185.82267      190.87439      147.57868     -596645.5     
    143300   299.3214       40011.147      39961.738      44712.715     -176.94487     -2.6795343      27.998003      185.83181      190.9088       147.56181     -596640.73    
    143400   300.00147      40008.988      40007.318      44701.064     -224.39028     -12.349643      16.171538      185.84361      190.90943      147.54494     -596640.86    
    143500   299.68645      40005.106      40049.77       44761.086     -180.89704     -3.4809995      33.136331      185.85878      190.9135       147.52807     -596629.88    
    143600   300.70316      39932.241      39914.629      44676.385     -167.02528      7.911048       28.875174      185.86493      190.95251      147.5112      -596662.75    
    143700   299.78087      40086.024      40052.785      44919.106     -139.06981     -4.7074048      10.698872      185.84843      190.9428       147.49433     -596607.62    
    143800   300.54902      39938.518      40007.44       44821.098     -124.11019     -12.579443      47.216928      185.87071      190.95632      147.47746     -596645.56    
    143900   300.05557      40037.515      40029.919      44791         -151.36312      11.332215      23.997244      185.85411      190.99039      147.46059     -596640.85    
    144000   299.74648      39966.67       39943.977      44697.693     -165.11739     -16.475633      47.227475      185.86194      191.03564      147.44371     -596652.9     
    144100   299.90109      40052.655      40029.605      44739.875     -186.25689     -43.601197      52.646269      185.85853      191.03927      147.42684     -596634.91    
    144200   300.3198       39945.331      39999.094      44685.675     -176.54971     -0.75766783     64.216828      185.88495      191.05484      147.40997     -596654.87    
    144300   300.15743      40012.926      40009.289      44711.424     -197.50577      1.0946798      65.698039      185.87404      191.08075      147.3931      -596649.01    
    144400   299.89353      40040.221      39954.779      44695.173     -193.00658     -19.925708      85.642817      185.86802      191.1082       147.37623     -596649.33    
    144500   300.75058      40028.906      39992.78       44700.915     -179.02378      1.3625322      94.10144       185.90056      191.08425      147.35936     -596668.71    
    144600   299.71758      39895.185      40038.287      44671.963     -160.10006     -19.037721      104.86734      185.95101      191.07292      147.34249     -596659.67    
    144700   299.95959      40051.444      40035.364      44670.573     -200.16863     -45.602696      32.227504      185.92193      191.10679      147.32562     -596647.9     
    144800   299.78618      40014.624      39917.95       44600.299     -158.26131     -38.589935      46.049511      185.91812      191.15834      147.30875     -596657.99    
    144900   299.97328      40041.619      40009.578      44688.393     -169.69774     -45.469084      64.289655      185.94432      191.13497      147.29188     -596644.83    
    145000   300.33929      39917.002      40060.842      44661.797     -199.53263     -25.56421       94.719638      185.98834      191.1222       147.27501     -596658.96    
    145100   299.89578      39992.35       39988.93       44690.489     -171.55533     -4.966068       50.560749      185.96178      191.16641      147.25813     -596646.98    
    145200   299.83911      40108.289      40008.203      44688.908     -181.82408     -2.5652127      49.233717      185.939        191.19953      147.24126     -596640.43    
    145300   300.13642      39927.451      39898.877      44540.595     -154.65335      6.823909       85.540755      185.99265      191.20539      147.22439     -596669.49    
    145400   300.41842      40028.149      40104.99       44708.457     -148.72842      27.958544      94.731658      186.01609      191.15651      147.20752     -596643.17    
    145500   300.06577      39935.989      40047.748      44583.948     -156.45771      17.713137      115.96072      186.02617      191.19488      147.19065     -596666.18    
    145600   299.89262      40018.361      39922.693      44528.047     -157.59364      4.2004735      47.859894      185.98698      191.26751      147.17378     -596667.44    
    145700   299.94427      40110.243      39985.517      44649.059     -159.44474      13.671927      81.014808      185.98567      191.26968      147.15691     -596654.03    
    145800   300.32184      39911.177      40036.079      44543.067     -185.19463     -7.9193768      111.539        186.05327      191.24121      147.14004     -596679.95    
    145900   299.7204       39981.523      40029.646      44484.182     -189.65488     -38.354287      99.155417      186.06094      191.25878      147.12317     -596667.24    
    146000   300.30599      39993.647      39965.653      44577.887     -170.20092     -32.643608      103.69355      186.03831      191.30028      147.1063      -596671.35    
    146100   300.23978      40042.068      40065.407      44673.234     -154.15646     -20.978295      132.37025      186.01663      191.31705      147.08943     -596659.6     
    146200   300.0704       39947.715      39896.249      44548.844     -187.59142      3.6836276      148.20611      186.02686      191.36488      147.07256     -596680.72    
    146300   299.89528      40092.019      40021.813      44692.962     -179.59103     -18.946876      153.09241      186.03046      191.3459       147.05568     -596645.88    
    146400   300.19318      39933.064      40026.054      44638.139     -189.02374     -25.306446      89.019775      186.08225      191.33246      147.03881     -596662.95    
    146500   299.86845      39981.871      40042.195      44660.368     -209.13531     -6.1908594      50.587498      186.07845      191.35148      147.02194     -596653.95    
    146600   299.86473      40015.035      39986.462      44611.418     -190.92805     -12.901379      102.22383      186.04895      191.40693      147.00507     -596656.24    
    146700   300.19795      40039.85       39941.998      44630.298     -211.17284     -14.10877       112.27658      186.03778      191.43857      146.9882      -596662.31    
    146800   300.46023      40004.468      40055.266      44675.152     -195.25916      15.998451      134.52557      186.06319      191.41554      146.97133     -596662.6     
    146900   299.47894      39959.018      40016.124      44629.996     -179.39542     -6.2985346      125.47414      186.08495      191.43464      146.95446     -596660.14    
    147000   300.03403      40032.502      40028.99       44662.76      -189.66656      28.238957      128.62661      186.05928      191.47021      146.93759     -596663.11    
    147100   299.87378      39975.666      39976.373      44624.657     -219.9387       20.07607       130.71749      186.05434      191.51608      146.92072     -596671.07    
    147200   299.54311      40070.155      40003.548      44574.74      -241.22584     -11.830167      158.40156      186.05029      191.53554      146.90385     -596655.23    
    147300   300.49341      39936.539      39946.582      44559.991     -209.45544      37.031988      126.36155      186.08326      191.53782      146.88698     -596680.37    
    147400   300.13273      40080.21       40071.458      44653.07      -187.47812      34.991953      131.29734      186.09304      191.51965      146.87011     -596656.77    
    147500   299.99284      39926.607      39938.723      44535.207     -192.58312     -20.064048      143.97798      186.13389      191.54246      146.85323     -596689.59    
    147600   299.67611      40041.351      40080.296      44661.741     -157.07947     -9.5539211      132.85159      186.12878      191.53241      146.83636     -596656.32    
    147700   300.03201      39963.153      39941.768      44572.59      -187.58456     -3.3565872      156.92983      186.13806      191.5704       146.81949     -596674.78    
    147800   299.25184      40052.757      40041.137      44645.448     -179.78678     -32.614515      145.84507      186.13981      191.58002      146.80262     -596638.07    
    147900   299.69329      39955.589      39972.522      44552.852     -169.29963     -31.304122      115.749        186.16401      191.60148      146.78575     -596654.36    
    148000   301.56582      40012.012      40005.997      44540.082     -168.94582     -35.586713      110.15654      186.15479      191.60659      146.76888     -596676.1     
    148100   299.3795       39976.186      40004.007      44537.398     -198.76006      24.030744      125.57578      186.16829      191.63478      146.75201     -596649.57    
    148200   300.23214      40017.359      39988.527      44594.005     -211.19879      10.88577       135.94944      186.15614      191.65097      146.73514     -596654.52    
    148300   299.75632      40014.007      40023.343      44609.303     -224.45667     -22.826981      172.76314      186.16177      191.66382      146.71827     -596642.59    
    148400   299.77054      40013.921      39952.681      44566.317     -237.27823     -29.859123      153.50575      186.18374      191.67749      146.7014      -596651.29    
    148500   300.82809      39989.592      40103.355      44589.016     -236.36816      16.949663      132.5037       186.19727      191.66361      146.68453     -596668.21    
    148600   300.11568      39966.778      39878.695      44461.498     -186.19341      41.820895      164.51575      186.19613      191.72583      146.66765     -596684.23    
    148700   299.70513      40120.694      40043.493      44560.97      -174.64323      18.564007      164.64763      186.19901      191.70883      146.65078     -596651.38    
    148800   299.9109       39884.921      39977.735      44450.979     -164.14937      4.9848186      127.20885      186.27307      191.6942       146.63391     -596678.42    
    148900   300.44261      40036.021      40094.379      44535.906     -160.42735      19.009628      90.388602      186.26217      191.6883       146.61704     -596662.84    
    149000   299.63683      39911.658      39953.048      44446.895     -200.82235      32.136188      92.794113      186.25613      191.758        146.60017     -596670.07    
    149100   299.62799      40102.257      40066.975      44532.507     -216.84907      0.85744324     134.32726      186.20323      191.79745      146.5833      -596643.33    
    149200   300.63331      39979.644      39874.126      44420.458     -168.24318      17.582859      92.790805      186.20977      191.84317      146.56643     -596688.38    
    149300   299.44761      40067.183      40054.581      44520.697     -187.76014      19.521205      65.87066       186.24495      191.80604      146.54956     -596644.6     
    149400   300.04191      39907.211      40017.736      44424.596     -160.56804      45.004965      48.692919      186.29554      191.79643      146.53269     -596672.41    
    149500   300.34411      40035.678      40047.706      44535.642     -199.90672      11.170962      55.733283      186.26343      191.82047      146.51582     -596663.18    
    149600   299.29877      39980.616      39954.978      44464.905     -179.93431      14.406767      91.52263       186.25793      191.87398      146.49895     -596655.5     
    149700   300.30548      40051.713      40008.279      44468.052     -153.97669     -18.435272      90.102447      186.25111      191.88651      146.48208     -596660.99    
    149800   300.24368      39964.168      40008.564      44426.494     -165.7464      -29.029375      47.636694      186.27158      191.89864      146.4652      -596673.05    
    149900   300.43316      39982.372      39982.811      44408.263     -199.7753      -13.776366      20.053137      186.27346      191.92269      146.44833     -596679.75    
    150000   299.35941      40047.81       40012.831      44499.435     -209.7235       2.0617406      26.644584      186.27109      191.93881      146.43146     -596647.08    
