ITEM: TIMESTEP energy, energy_weight, force_weight, nsims
1        -48100.3599391436291626    1    1   99
ITEM: NUMBER OF ATOMS
8         
ITEM: BOX BOUNDS xy xz yz pp pp pp
    0.0000000000000000      5.5635050073615009      0.0000000000000003
    0.0000000000000000      5.5635050073615000      0.0000000000000003
    0.0000000000000000      5.5635050073615000      0.0000000000000003
ITEM: ATOMS id type x y z
1      1          1.3908779208918773     1.3908779208918773     1.3908779208918773
2      1          2.7817525036807500     0.0000000000000002     2.7817525036807500
3      1          1.3908779208918778     4.1726270864696229     4.1726270864696229
4      1          2.7817525036807500     2.7817525036807500     0.0000000000000000
5      1          4.1726270864696229     1.3908779208918776     4.1726270864696229
6      1          0.0000000000000000     0.0000000000000000     0.0000000000000000
7      1          4.1726270864696229     4.1726270864696229     1.3908779208918773
8      1          0.0000000000000003     2.7817525036807500     2.7817525036807500
ITEM: TIMESTEP energy, energy_weight, force_weight, nsims
2        -48107.4916611645749072    1    1   99
ITEM: NUMBER OF ATOMS
8         
ITEM: BOX BOUNDS xy xz yz pp pp pp
    0.0000000000000000      5.7782980527305998      0.0000000000000004
    0.0000000000000000      5.7782980527305989      0.0000000000000004
    0.0000000000000000      5.7782980527305989      0.0000000000000004
ITEM: ATOMS id type x y z
1      1          1.4445762466720655     1.4445762466720655     1.4445762466720655
2      1          2.8891490263652995     0.0000000000000002     2.8891490263652995
3      1          1.4445762466720660     4.3337218060585334     4.3337218060585334
4      1          2.8891490263652995     2.8891490263652995     0.0000000000000000
5      1          4.3337218060585334     1.4445762466720657     4.3337218060585334
6      1          0.0000000000000000     0.0000000000000000     0.0000000000000000
7      1          4.3337218060585334     4.3337218060585334     1.4445762466720655
8      1          0.0000000000000004     2.8891490263652995     2.8891490263652995
ITEM: TIMESTEP energy, energy_weight, force_weight, nsims
3        -48108.0964608386566397    1    1   99
ITEM: NUMBER OF ATOMS
8         
ITEM: BOX BOUNDS xy xz yz pp pp pp
    0.0000000000000000      5.8016876871364005      0.0000000000000004
    0.0000000000000000      5.8016876871363996      0.0000000000000004
    0.0000000000000000      5.8016876871363996      0.0000000000000004
ITEM: ATOMS id type x y z
1      1          1.4504236622904061     1.4504236622904061     1.4504236622904061
2      1          2.9008438435681998     0.0000000000000002     2.9008438435681998
3      1          1.4504236622904065     4.3512640248459942     4.3512640248459942
4      1          2.9008438435681998     2.9008438435681998     0.0000000000000000
5      1          4.3512640248459942     1.4504236622904063     4.3512640248459942
6      1          0.0000000000000000     0.0000000000000000     0.0000000000000000
7      1          4.3512640248459942     4.3512640248459942     1.4504236622904061
8      1          0.0000000000000004     2.9008438435681998     2.9008438435681998
ITEM: TIMESTEP energy, energy_weight, force_weight, nsims
4        -48108.6696176046971232    1    1   99
ITEM: NUMBER OF ATOMS
8         
ITEM: BOX BOUNDS xy xz yz pp pp pp
    0.0000000000000000      5.8249714860924007      0.0000000000000004
    0.0000000000000000      5.8249714860923998      0.0000000000000004
    0.0000000000000000      5.8249714860923998      0.0000000000000004
ITEM: ATOMS id type x y z
1      1          1.4562446190145457     1.4562446190145457     1.4562446190145457
2      1          2.9124857430461999     0.0000000000000002     2.9124857430461999
3      1          1.4562446190145462     4.3687268670778545     4.3687268670778545
4      1          2.9124857430461999     2.9124857430461999     0.0000000000000000
5      1          4.3687268670778545     1.4562446190145459     4.3687268670778545
6      1          0.0000000000000000     0.0000000000000000     0.0000000000000000
7      1          4.3687268670778545     4.3687268670778545     1.4562446190145457
8      1          0.0000000000000004     2.9124857430461999     2.9124857430461999
ITEM: TIMESTEP energy, energy_weight, force_weight, nsims
5        -48109.2125021007013856    1    1   99
ITEM: NUMBER OF ATOMS
8         
ITEM: BOX BOUNDS xy xz yz pp pp pp
    0.0000000000000000      5.8481494495986004      0.0000000000000004
    0.0000000000000000      5.8481494495985995      0.0000000000000004
    0.0000000000000000      5.8481494495985995      0.0000000000000004
ITEM: ATOMS id type x y z
1      1          1.4620391168444848     1.4620391168444848     1.4620391168444848
2      1          2.9240747247992998     0.0000000000000002     2.9240747247992998
3      1          1.4620391168444853     4.3861103327541153     4.3861103327541153
4      1          2.9240747247992998     2.9240747247992998     0.0000000000000000
5      1          4.3861103327541153     1.4620391168444851     4.3861103327541153
6      1          0.0000000000000000     0.0000000000000000     0.0000000000000000
7      1          4.3861103327541153     4.3861103327541153     1.4620391168444848
8      1          0.0000000000000004     2.9240747247992998     2.9240747247992998
ITEM: TIMESTEP energy, energy_weight, force_weight, nsims
6        -48109.7264491817259113    1    1   99
ITEM: NUMBER OF ATOMS
8         
ITEM: BOX BOUNDS xy xz yz pp pp pp
    0.0000000000000000      5.8712744953799003      0.0000000000000004
    0.0000000000000000      5.8712744953798994      0.0000000000000004
    0.0000000000000000      5.8712744953798994      0.0000000000000004
ITEM: ATOMS id type x y z
1      1          1.4678203852273235     1.4678203852273235     1.4678203852273235
2      1          2.9356372476899497     0.0000000000000002     2.9356372476899497
3      1          1.4678203852273239     4.4034541101525759     4.4034541101525759
4      1          2.9356372476899497     2.9356372476899497     0.0000000000000000
5      1          4.4034541101525759     1.4678203852273237     4.4034541101525759
6      1          0.0000000000000000     0.0000000000000000     0.0000000000000000
7      1          4.4034541101525759     4.4034541101525759     1.4678203852273235
8      1          0.0000000000000004     2.9356372476899497     2.9356372476899497
ITEM: TIMESTEP energy, energy_weight, force_weight, nsims
7        -48110.2127120685981936    1    1   99
ITEM: NUMBER OF ATOMS
8         
ITEM: BOX BOUNDS xy xz yz pp pp pp
    0.0000000000000000      5.8942937057114007      0.0000000000000004
    0.0000000000000000      5.8942937057113998      0.0000000000000004
    0.0000000000000000      5.8942937057113998      0.0000000000000004
ITEM: ATOMS id type x y z
1      1          1.4735751947159617     1.4735751947159617     1.4735751947159617
2      1          2.9471468528556999     0.0000000000000002     2.9471468528556999
3      1          1.4735751947159621     4.4207185109954388     4.4207185109954388
4      1          2.9471468528556999     2.9471468528556999     0.0000000000000000
5      1          4.4207185109954388     1.4735751947159619     4.4207185109954388
6      1          0.0000000000000000     0.0000000000000000     0.0000000000000000
7      1          4.4207185109954388     4.4207185109954388     1.4735751947159617
8      1          0.0000000000000004     2.9471468528556999     2.9471468528556999
ITEM: TIMESTEP energy, energy_weight, force_weight, nsims
8        -48110.6724918723703013    1    1   99
ITEM: NUMBER OF ATOMS
8         
ITEM: BOX BOUNDS xy xz yz pp pp pp
    0.0000000000000000      5.9172070805931005      0.0000000000000004
    0.0000000000000000      5.9172070805930996      0.0000000000000004
    0.0000000000000000      5.9172070805930996      0.0000000000000004
ITEM: ATOMS id type x y z
1      1          1.4793035453103991     1.4793035453103991     1.4793035453103991
2      1          2.9586035402965498     0.0000000000000002     2.9586035402965498
3      1          1.4793035453103995     4.4379035352827012     4.4379035352827012
4      1          2.9586035402965498     2.9586035402965498     0.0000000000000000
5      1          4.4379035352827012     1.4793035453103993     4.4379035352827012
6      1          0.0000000000000000     0.0000000000000000     0.0000000000000000
7      1          4.4379035352827012     4.4379035352827012     1.4793035453103991
8      1          0.0000000000000004     2.9586035402965498     2.9586035402965498
ITEM: TIMESTEP energy, energy_weight, force_weight, nsims
9        -48111.1069415398742422    1    1   99
ITEM: NUMBER OF ATOMS
8         
ITEM: BOX BOUNDS xy xz yz pp pp pp
    0.0000000000000000      5.9400146200249999      0.0000000000000004
    0.0000000000000000      5.9400146200249990      0.0000000000000004
    0.0000000000000000      5.9400146200249990      0.0000000000000004
ITEM: ATOMS id type x y z
1      1          1.4850054370106358     1.4850054370106358     1.4850054370106358
2      1          2.9700073100124995     0.0000000000000002     2.9700073100124995
3      1          1.4850054370106363     4.4550091830143632     4.4550091830143632
4      1          2.9700073100124995     2.9700073100124995     0.0000000000000000
5      1          4.4550091830143632     1.4850054370106360     4.4550091830143632
6      1          0.0000000000000000     0.0000000000000000     0.0000000000000000
7      1          4.4550091830143632     4.4550091830143632     1.4850054370106358
8      1          0.0000000000000004     2.9700073100124995     2.9700073100124995
ITEM: TIMESTEP energy, energy_weight, force_weight, nsims
10       -48111.5171493909074343    1    1   99
ITEM: NUMBER OF ATOMS
8         
ITEM: BOX BOUNDS xy xz yz pp pp pp
    0.0000000000000000      5.9627692417320004      0.0000000000000004
    0.0000000000000000      5.9627692417319995      0.0000000000000004
    0.0000000000000000      5.9627692417319995      0.0000000000000004
ITEM: ATOMS id type x y z
1      1          1.4906940992637725     1.4906940992637725     1.4906940992637725
2      1          2.9813846208659998     0.0000000000000002     2.9813846208659998
3      1          1.4906940992637729     4.4720751424682277     4.4720751424682277
4      1          2.9813846208659998     2.9813846208659998     0.0000000000000000
5      1          4.4720751424682277     1.4906940992637727     4.4720751424682277
6      1          0.0000000000000000     0.0000000000000000     0.0000000000000000
7      1          4.4720751424682277     4.4720751424682277     1.4906940992637725
8      1          0.0000000000000004     2.9813846208659998     2.9813846208659998
ITEM: TIMESTEP energy, energy_weight, force_weight, nsims
11       -48111.9041803434593021    1    1   99
ITEM: NUMBER OF ATOMS
8         
ITEM: BOX BOUNDS xy xz yz pp pp pp
    0.0000000000000000      5.9854180279892004      0.0000000000000004
    0.0000000000000000      5.9854180279891995      0.0000000000000004
    0.0000000000000000      5.9854180279891995      0.0000000000000004
ITEM: ATOMS id type x y z
1      1          1.4963563026227082     1.4963563026227082     1.4963563026227082
2      1          2.9927090139945998     0.0000000000000002     2.9927090139945998
3      1          1.4963563026227087     4.4890617253664917     4.4890617253664917
4      1          2.9927090139945998     2.9927090139945998     0.0000000000000000
5      1          4.4890617253664917     1.4963563026227085     4.4890617253664917
6      1          0.0000000000000000     0.0000000000000000     0.0000000000000000
7      1          4.4890617253664917     4.4890617253664917     1.4963563026227082
8      1          0.0000000000000004     2.9927090139945998     2.9927090139945998
ITEM: TIMESTEP energy, energy_weight, force_weight, nsims
12       -48101.3241575502615888    1    1   99
ITEM: NUMBER OF ATOMS
8         
ITEM: BOX BOUNDS xy xz yz pp pp pp
    0.0000000000000000      5.5877413253657009      0.0000000000000003
    0.0000000000000000      5.5877413253657000      0.0000000000000003
    0.0000000000000000      5.5877413253657000      0.0000000000000003
ITEM: ATOMS id type x y z
1      1          1.3969370076638226     1.3969370076638226     1.3969370076638226
2      1          2.7938706626828500     0.0000000000000002     2.7938706626828500
3      1          1.3969370076638230     4.1908043177018772     4.1908043177018772
4      1          2.7938706626828500     2.7938706626828500     0.0000000000000000
5      1          4.1908043177018772     1.3969370076638228     4.1908043177018772
6      1          0.0000000000000000     0.0000000000000000     0.0000000000000000
7      1          4.1908043177018772     4.1908043177018772     1.3969370076638226
8      1          0.0000000000000003     2.7938706626828500     2.7938706626828500
ITEM: TIMESTEP energy, energy_weight, force_weight, nsims
13       -48112.2690130553892232    1    1   99
ITEM: NUMBER OF ATOMS
8         
ITEM: BOX BOUNDS xy xz yz pp pp pp
    0.0000000000000000      6.0080138965215006      0.0000000000000004
    0.0000000000000000      6.0080138965214998      0.0000000000000004
    0.0000000000000000      6.0080138965214998      0.0000000000000004
ITEM: ATOMS id type x y z
1      1          1.5020052765345440     1.5020052765345440     1.5020052765345440
2      1          3.0040069482607499     0.0000000000000002     3.0040069482607499
3      1          1.5020052765345444     4.5060086199869565     4.5060086199869565
4      1          3.0040069482607499     3.0040069482607499     0.0000000000000000
5      1          4.5060086199869565     1.5020052765345442     4.5060086199869565
6      1          0.0000000000000000     0.0000000000000000     0.0000000000000000
7      1          4.5060086199869565     4.5060086199869565     1.5020052765345440
8      1          0.0000000000000004     3.0040069482607499     3.0040069482607499
ITEM: TIMESTEP energy, energy_weight, force_weight, nsims
14       -48112.6126267287836527    1    1   99
ITEM: NUMBER OF ATOMS
8         
ITEM: BOX BOUNDS xy xz yz pp pp pp
    0.0000000000000000      6.0305039296040013      0.0000000000000004
    0.0000000000000000      6.0305039296040004      0.0000000000000004
    0.0000000000000000      6.0305039296040004      0.0000000000000004
ITEM: ATOMS id type x y z
1      1          1.5076277915521790     1.5076277915521790     1.5076277915521790
2      1          3.0152519648020002     0.0000000000000002     3.0152519648020002
3      1          1.5076277915521794     4.5228761380518216     4.5228761380518216
4      1          3.0152519648020002     3.0152519648020002     0.0000000000000000
5      1          4.5228761380518216     1.5076277915521792     4.5228761380518216
6      1          0.0000000000000000     0.0000000000000000     0.0000000000000000
7      1          4.5228761380518216     4.5228761380518216     1.5076277915521790
8      1          0.0000000000000004     3.0152519648020002     3.0152519648020002
ITEM: TIMESTEP energy, energy_weight, force_weight, nsims
15       -48112.9359341699309880    1    1   99
ITEM: NUMBER OF ATOMS
8         
ITEM: BOX BOUNDS xy xz yz pp pp pp
    0.0000000000000000      6.0528881272367006      0.0000000000000004
    0.0000000000000000      6.0528881272366997      0.0000000000000004
    0.0000000000000000      6.0528881272366997      0.0000000000000004
ITEM: ATOMS id type x y z
1      1          1.5132238476756132     1.5132238476756132     1.5132238476756132
2      1          3.0264440636183498     0.0000000000000002     3.0264440636183498
3      1          1.5132238476756137     4.5396642795610864     4.5396642795610864
4      1          3.0264440636183498     3.0264440636183498     0.0000000000000000
5      1          4.5396642795610864     1.5132238476756135     4.5396642795610864
6      1          0.0000000000000000     0.0000000000000000     0.0000000000000000
7      1          4.5396642795610864     4.5396642795610864     1.5132238476756132
8      1          0.0000000000000004     3.0264440636183498     3.0264440636183498
ITEM: TIMESTEP energy, energy_weight, force_weight, nsims
16       -48113.2398096809847630    1    1   99
ITEM: NUMBER OF ATOMS
8         
ITEM: BOX BOUNDS xy xz yz pp pp pp
    0.0000000000000000      6.0752194071445000      0.0000000000000004
    0.0000000000000000      6.0752194071444992      0.0000000000000004
    0.0000000000000000      6.0752194071444992      0.0000000000000004
ITEM: ATOMS id type x y z
1      1          1.5188066743519471     1.5188066743519471     1.5188066743519471
2      1          3.0376097035722496     0.0000000000000002     3.0376097035722496
3      1          1.5188066743519475     4.5564127327925528     4.5564127327925528
4      1          3.0376097035722496     3.0376097035722496     0.0000000000000000
5      1          4.5564127327925528     1.5188066743519473     4.5564127327925528
6      1          0.0000000000000000     0.0000000000000000     0.0000000000000000
7      1          4.5564127327925528     4.5564127327925528     1.5188066743519471
8      1          0.0000000000000004     3.0376097035722496     3.0376097035722496
ITEM: TIMESTEP energy, energy_weight, force_weight, nsims
17       -48113.5250867470094818    1    1   99
ITEM: NUMBER OF ATOMS
8         
ITEM: BOX BOUNDS xy xz yz pp pp pp
    0.0000000000000000      6.0974448516025008      0.0000000000000004
    0.0000000000000000      6.0974448516024999      0.0000000000000004
    0.0000000000000000      6.0974448516024999      0.0000000000000004
ITEM: ATOMS id type x y z
1      1          1.5243630421340806     1.5243630421340806     1.5243630421340806
2      1          3.0487224258012500     0.0000000000000002     3.0487224258012500
3      1          1.5243630421340810     4.5730818094684196     4.5730818094684196
4      1          3.0487224258012500     3.0487224258012500     0.0000000000000000
5      1          4.5730818094684196     1.5243630421340808     4.5730818094684196
6      1          0.0000000000000000     0.0000000000000000     0.0000000000000000
7      1          4.5730818094684196     4.5730818094684196     1.5243630421340806
8      1          0.0000000000000004     3.0487224258012500     3.0487224258012500
ITEM: TIMESTEP energy, energy_weight, force_weight, nsims
18       -48113.7925701450440101    1    1   99
ITEM: NUMBER OF ATOMS
8         
ITEM: BOX BOUNDS xy xz yz pp pp pp
    0.0000000000000000      6.1196173783356000      0.0000000000000004
    0.0000000000000000      6.1196173783355992      0.0000000000000004
    0.0000000000000000      6.1196173783355992      0.0000000000000004
ITEM: ATOMS id type x y z
1      1          1.5299061804691134     1.5299061804691134     1.5299061804691134
2      1          3.0598086891677996     0.0000000000000002     3.0598086891677996
3      1          1.5299061804691139     4.5897111978664862     4.5897111978664862
4      1          3.0598086891677996     3.0598086891677996     0.0000000000000000
5      1          4.5897111978664862     1.5299061804691136     4.5897111978664862
6      1          0.0000000000000000     0.0000000000000000     0.0000000000000000
7      1          4.5897111978664862     4.5897111978664862     1.5299061804691134
8      1          0.0000000000000004     3.0598086891677996     3.0598086891677996
ITEM: TIMESTEP energy, energy_weight, force_weight, nsims
19       -48114.0430401618796168    1    1   99
ITEM: NUMBER OF ATOMS
8         
ITEM: BOX BOUNDS xy xz yz pp pp pp
    0.0000000000000000      6.1416840696189006      0.0000000000000004
    0.0000000000000000      6.1416840696188997      0.0000000000000004
    0.0000000000000000      6.1416840696188997      0.0000000000000004
ITEM: ATOMS id type x y z
1      1          1.5354228599099458     1.5354228599099458     1.5354228599099458
2      1          3.0708420348094498     0.0000000000000002     3.0708420348094498
3      1          1.5354228599099462     4.6062612097089541     4.6062612097089541
4      1          3.0708420348094498     3.0708420348094498     0.0000000000000000
5      1          4.6062612097089541     1.5354228599099460     4.6062612097089541
6      1          0.0000000000000000     0.0000000000000000     0.0000000000000000
7      1          4.6062612097089541     4.6062612097089541     1.5354228599099458
8      1          0.0000000000000004     3.0708420348094498     3.0708420348094498
ITEM: TIMESTEP energy, energy_weight, force_weight, nsims
20       -48114.2772004842190654    1    1   99
ITEM: NUMBER OF ATOMS
8         
ITEM: BOX BOUNDS xy xz yz pp pp pp
    0.0000000000000000      6.1636978431773004      0.0000000000000004
    0.0000000000000000      6.1636978431772995      0.0000000000000004
    0.0000000000000000      6.1636978431772995      0.0000000000000004
ITEM: ATOMS id type x y z
1      1          1.5409263099036778     1.5409263099036778     1.5409263099036778
2      1          3.0818489215886498     0.0000000000000002     3.0818489215886498
3      1          1.5409263099036783     4.6227715332736219     4.6227715332736219
4      1          3.0818489215886498     3.0818489215886498     0.0000000000000000
5      1          4.6227715332736219     1.5409263099036781     4.6227715332736219
6      1          0.0000000000000000     0.0000000000000000     0.0000000000000000
7      1          4.6227715332736219     4.6227715332736219     1.5409263099036778
8      1          0.0000000000000004     3.0818489215886498     3.0818489215886498
ITEM: TIMESTEP energy, energy_weight, force_weight, nsims
21       -48114.4957939831656404    1    1   99
ITEM: NUMBER OF ATOMS
8         
ITEM: BOX BOUNDS xy xz yz pp pp pp
    0.0000000000000000      6.1856057812859007      0.0000000000000004
    0.0000000000000000      6.1856057812858998      0.0000000000000004
    0.0000000000000000      6.1856057812858998      0.0000000000000004
ITEM: ATOMS id type x y z
1      1          1.5464033010032094     1.5464033010032094     1.5464033010032094
2      1          3.0928028906429499     0.0000000000000002     3.0928028906429499
3      1          1.5464033010032099     4.6392024802826910     4.6392024802826910
4      1          3.0928028906429499     3.0928028906429499     0.0000000000000000
5      1          4.6392024802826910     1.5464033010032097     4.6392024802826910
6      1          0.0000000000000000     0.0000000000000000     0.0000000000000000
7      1          4.6392024802826910     4.6392024802826910     1.5464033010032094
8      1          0.0000000000000004     3.0928028906429499     3.0928028906429499
ITEM: TIMESTEP energy, energy_weight, force_weight, nsims
22       -48114.6994703308155295    1    1   99
ITEM: NUMBER OF ATOMS
8         
ITEM: BOX BOUNDS xy xz yz pp pp pp
    0.0000000000000000      6.2074608016696002      0.0000000000000004
    0.0000000000000000      6.2074608016695993      0.0000000000000004
    0.0000000000000000      6.2074608016695993      0.0000000000000004
ITEM: ATOMS id type x y z
1      1          1.5518670626556403     1.5518670626556403     1.5518670626556403
2      1          3.1037304008347997     0.0000000000000002     3.1037304008347997
3      1          1.5518670626556408     4.6555937390139590     4.6555937390139590
4      1          3.1037304008347997     3.1037304008347997     0.0000000000000000
5      1          4.6555937390139590     1.5518670626556406     4.6555937390139590
6      1          0.0000000000000000     0.0000000000000000     0.0000000000000000
7      1          4.6555937390139590     4.6555937390139590     1.5518670626556403
8      1          0.0000000000000004     3.1037304008347997     3.1037304008347997
ITEM: TIMESTEP energy, energy_weight, force_weight, nsims
23       -48102.2407780549037852    1    1   99
ITEM: NUMBER OF ATOMS
8         
ITEM: BOX BOUNDS xy xz yz pp pp pp
    0.0000000000000000      5.6119247256450011      0.0000000000000003
    0.0000000000000000      5.6119247256450002      0.0000000000000003
    0.0000000000000000      5.6119247256450002      0.0000000000000003
ITEM: ATOMS id type x y z
1      1          1.4029828649886678     1.4029828649886678     1.4029828649886678
2      1          2.8059623628225001     0.0000000000000002     2.8059623628225001
3      1          1.4029828649886682     4.2089418606563331     4.2089418606563331
4      1          2.8059623628225001     2.8059623628225001     0.0000000000000000
5      1          4.2089418606563331     1.4029828649886680     4.2089418606563331
6      1          0.0000000000000000     0.0000000000000000     0.0000000000000000
7      1          4.2089418606563331     4.2089418606563331     1.4029828649886678
8      1          0.0000000000000003     2.8059623628225001     2.8059623628225001
ITEM: TIMESTEP energy, energy_weight, force_weight, nsims
24       -48114.8888786550160148    1    1   99
ITEM: NUMBER OF ATOMS
8         
ITEM: BOX BOUNDS xy xz yz pp pp pp
    0.0000000000000000      6.2292099866035002      0.0000000000000004
    0.0000000000000000      6.2292099866034993      0.0000000000000004
    0.0000000000000000      6.2292099866034993      0.0000000000000004
ITEM: ATOMS id type x y z
1      1          1.5573043654138710     1.5573043654138710     1.5573043654138710
2      1          3.1146049933017497     0.0000000000000002     3.1146049933017497
3      1          1.5573043654138714     4.6719056211896284     4.6719056211896284
4      1          3.1146049933017497     3.1146049933017497     0.0000000000000000
5      1          4.6719056211896284     1.5573043654138712     4.6719056211896284
6      1          0.0000000000000000     0.0000000000000000     0.0000000000000000
7      1          4.6719056211896284     4.6719056211896284     1.5573043654138710
8      1          0.0000000000000004     3.1146049933017497     3.1146049933017497
ITEM: TIMESTEP energy, energy_weight, force_weight, nsims
25       -48115.0646399198303698    1    1   99
ITEM: NUMBER OF ATOMS
8         
ITEM: BOX BOUNDS xy xz yz pp pp pp
    0.0000000000000000      6.2509062538125004      0.0000000000000004
    0.0000000000000000      6.2509062538124995      0.0000000000000004
    0.0000000000000000      6.2509062538124995      0.0000000000000004
ITEM: ATOMS id type x y z
1      1          1.5627284387250011     1.5627284387250011     1.5627284387250011
2      1          3.1254531269062498     0.0000000000000002     3.1254531269062498
3      1          1.5627284387250016     4.6881778150874984     4.6881778150874984
4      1          3.1254531269062498     3.1254531269062498     0.0000000000000000
5      1          4.6881778150874984     1.5627284387250013     4.6881778150874984
6      1          0.0000000000000000     0.0000000000000000     0.0000000000000000
7      1          4.6881778150874984     4.6881778150874984     1.5627284387250011
8      1          0.0000000000000004     3.1254531269062498     3.1254531269062498
ITEM: TIMESTEP energy, energy_weight, force_weight, nsims
26       -48115.2273492384847486    1    1   99
ITEM: NUMBER OF ATOMS
8         
ITEM: BOX BOUNDS xy xz yz pp pp pp
    0.0000000000000000      6.2725496032966008      0.0000000000000004
    0.0000000000000000      6.2725496032965999      0.0000000000000004
    0.0000000000000000      6.2725496032965999      0.0000000000000004
ITEM: ATOMS id type x y z
1      1          1.5681392825890310     1.5681392825890310     1.5681392825890310
2      1          3.1362748016483000     0.0000000000000002     3.1362748016483000
3      1          1.5681392825890315     4.7044103207075691     4.7044103207075691
4      1          3.1362748016483000     3.1362748016483000     0.0000000000000000
5      1          4.7044103207075691     1.5681392825890312     4.7044103207075691
6      1          0.0000000000000000     0.0000000000000000     0.0000000000000000
7      1          4.7044103207075691     4.7044103207075691     1.5681392825890310
8      1          0.0000000000000004     3.1362748016483000     3.1362748016483000
ITEM: TIMESTEP energy, energy_weight, force_weight, nsims
27       -48115.3775660772953415    1    1   99
ITEM: NUMBER OF ATOMS
8         
ITEM: BOX BOUNDS xy xz yz pp pp pp
    0.0000000000000000      6.2940871173309008      0.0000000000000004
    0.0000000000000000      6.2940871173308999      0.0000000000000004
    0.0000000000000000      6.2940871173308999      0.0000000000000004
ITEM: ATOMS id type x y z
1      1          1.5735236675588602     1.5735236675588602     1.5735236675588602
2      1          3.1470435586654499     0.0000000000000002     3.1470435586654499
3      1          1.5735236675588606     4.7205634497720403     4.7205634497720403
4      1          3.1470435586654499     3.1470435586654499     0.0000000000000000
5      1          4.7205634497720403     1.5735236675588604     4.7205634497720403
6      1          0.0000000000000000     0.0000000000000000     0.0000000000000000
7      1          4.7205634497720403     4.7205634497720403     1.5735236675588602
8      1          0.0000000000000004     3.1470435586654499     3.1470435586654499
ITEM: TIMESTEP energy, energy_weight, force_weight, nsims
28       -48115.5158330314880004    1    1   99
ITEM: NUMBER OF ATOMS
8         
ITEM: BOX BOUNDS xy xz yz pp pp pp
    0.0000000000000000      6.3155717136403000      0.0000000000000004
    0.0000000000000000      6.3155717136402991      0.0000000000000004
    0.0000000000000000      6.3155717136402991      0.0000000000000004
ITEM: ATOMS id type x y z
1      1          1.5788948230815889     1.5788948230815889     1.5788948230815889
2      1          3.1577858568201496     0.0000000000000002     3.1577858568201496
3      1          1.5788948230815893     4.7366768905587104     4.7366768905587104
4      1          3.1577858568201496     3.1577858568201496     0.0000000000000000
5      1          4.7366768905587104     1.5788948230815891     4.7366768905587104
6      1          0.0000000000000000     0.0000000000000000     0.0000000000000000