ITEM: TIMESTEP energy, energy_weight, force_weight, nsims
1        -336815.2538001035572961    1    1   21
ITEM: NUMBER OF ATOMS
56        
ITEM: BOX BOUNDS xy xz yz pp pp pp
    0.0000000000000000      6.6496413109340038      0.0000000000000004
    0.0000000000000000      6.6496413109340029      0.0000000000000029
    0.0000000000000000     46.5474891765380008      0.0000000000000029
ITEM: ATOMS id type x y z
1      1          1.6624123226258933     1.6624123226258933     1.6624109926976309
2      1          3.3248206554670001     0.0000000000000002     3.3248219853952619
3      1          1.6624123226258938     4.9872289883081073     4.9872283233439756
4      1          3.3248206554670001     3.3248206554670001     0.0000000000000000
5      1          4.9872289883081073     1.6624123226258936     4.9872283233439756
6      1          0.0000000000000000     0.0000000000000000     0.0000000000000000
7      1          4.9872289883081073     4.9872289883081073     1.6624109926976309
8      1          0.0000000000000004     3.3248206554670001     3.3248219853952619
9      1          1.6624123226258938     1.6624123226258938     8.3120549634881549
10     1          3.3248206554670006     0.0000000000000006     9.9744613014368682
11     1          1.6624123226258942     4.9872289883081082    11.6368722941345002
12     1          3.3248206554670006     3.3248206554670006     6.6496393160416059
13     1          4.9872289883081082     1.6624123226258940    11.6368722941345002
14     1          0.0000000000000004     0.0000000000000004     6.6496393160416059
15     1          4.9872289883081082     4.9872289883081082     8.3120549634881549
16     1          0.0000000000000008     3.3248206554670006     9.9744613014368682
17     1          1.6624123226258942     1.6624123226258942    14.9616942795297625
18     1          3.3248206554670010     0.0000000000000010    16.6241052722273928
19     1          1.6624123226258947     4.9872289883081082    18.2865116101761060
20     1          3.3248206554670010     3.3248206554670010    13.2992832868321305
21     1          4.9872289883081082     1.6624123226258944    18.2865116101761060
22     1          0.0000000000000008     0.0000000000000008    13.2992832868321305
23     1          4.9872289883081082     4.9872289883081082    14.9616942795297625
24     1          0.0000000000000012     3.3248206554670010    16.6241052722273928
25     1          1.6624123226258947     1.6624123226258947    21.6113382503202871
26     1          3.3248206554670015     0.0000000000000014    23.2737445882690004
27     1          1.6624123226258951     4.9872289883081091    24.9361509262177137
28     1          3.3248206554670015     3.3248206554670015    19.9489226028737363
29     1          4.9872289883081091     1.6624123226258949    24.9361509262177137
30     1          0.0000000000000012     0.0000000000000012    19.9489226028737363
31     1          4.9872289883081082     4.9872289883081082    21.6113382503202871
32     1          0.0000000000000016     3.3248206554670015    23.2737445882690004
33     1          1.6624123226258951     1.6624123226258951    28.2609775663618947
34     1          3.3248206554670019     0.0000000000000018    29.9233839043106045
35     1          1.6624123226258956     4.9872289883081091    31.5857948970082418
36     1          3.3248206554670019     3.3248206554670019    26.5985665736642609
37     1          4.9872289883081091     1.6624123226258953    31.5857948970082418
38     1          0.0000000000000016     0.0000000000000016    26.5985665736642609
39     1          4.9872289883081091     4.9872289883081091    28.2609775663618947
40     1          0.0000000000000020     3.3248206554670019    29.9233839043106045
41     1          1.6624123226258956     1.6624123226258956    34.9106168824035024
42     1          3.3248206554670023     0.0000000000000022    36.5730278751011326
43     1          1.6624123226258960     4.9872289883081100    38.2354342130498424
44     1          3.3248206554670023     3.3248206554670023    33.2482058897058721
45     1          4.9872289883081100     1.6624123226258958    38.2354342130498424
46     1          0.0000000000000020     0.0000000000000020    33.2482058897058721
47     1          4.9872289883081091     4.9872289883081091    34.9106168824035024
48     1          0.0000000000000024     3.3248206554670023    36.5730278751011326
49     1          1.6624123226258958     1.6624123226258958    41.5602608531940234
50     1          3.3248206554670028     0.0000000000000026    43.2226671911427403
51     1          1.6624123226258962     4.9872289883081100    44.8850781838403705
52     1          3.3248206554670028     3.3248206554670028    39.8978498604963931
53     1          4.9872289883081100     1.6624123226258960    44.8850781838403705
54     1          0.0000000000000024     0.0000000000000024    39.8978498604963931
55     1          4.9872289883081100     4.9872289883081100    41.5602608531940234
56     1          0.0000000000000029     3.3248206554670028    43.2226671911427403
ITEM: TIMESTEP energy, energy_weight, force_weight, nsims
2        -336814.4623785522417165    1    1   21
ITEM: NUMBER OF ATOMS
56        
ITEM: BOX BOUNDS xy xz yz pp pp pp
    0.0000000000000000      6.6496413109340038      0.0000000000000004
    0.0000000000000000      6.6496413109340029      0.0000000000000029
    0.0000000000000000     47.0474890059897533      0.0000000000000029
ITEM: ATOMS id type x y z
1      1          1.6624123226258933     1.6624123226258933     1.6624136145288466
2      1          3.3248206554670001     0.0000000000000002     3.3248225243087925
3      1          1.6624123226258938     4.9872289883081073     4.9872314340887396
4      1          3.3248206554670001     3.3248206554670001     0.0000000000000000
5      1          4.9872289883081073     1.6624123226258936     4.9872314340887396
6      1          0.0000000000000000     0.0000000000000000     0.0000000000000000
7      1          4.9872289883081073     4.9872289883081073     1.6624136145288466
8      1          0.0000000000000004     3.3248206554670001     3.3248225243087925
9      1          1.6624123226258938     1.6624123226258938     8.3120539583975308
10     1          3.3248206554670006     0.0000000000000006     9.9744628681774792
11     1          1.6624123226258942     4.9872289883081082    11.6368717779574240
12     1          3.3248206554670006     3.3248206554670006     6.6496403438686844
13     1          4.9872289883081082     1.6624123226258940    11.6368717779574240
14     1          0.0000000000000004     0.0000000000000004     6.6496403438686844
15     1          4.9872289883081082     4.9872289883081082     8.3120539583975308
16     1          0.0000000000000008     3.3248206554670006     9.9744628681774792
17     1          1.6624123226258942     1.6624123226258942    14.9616943022662152
18     1          3.3248206554670010     0.0000000000000010    16.6241032120461618
19     1          1.6624123226258947     4.9872289883081082    18.2865121218261102
20     1          3.3248206554670010     3.3248206554670010    13.2992806877373688
21     1          4.9872289883081082     1.6624123226258944    18.2865121218261102
22     1          0.0000000000000008     0.0000000000000008    13.2992806877373688
23     1          4.9872289883081082     4.9872289883081082    14.9616943022662152
24     1          0.0000000000000012     3.3248206554670010    16.6241032120461618
25     1          1.6624123226258947     1.6624123226258947    21.6113346461349032
26     1          3.3248206554670015     0.0000000000000014    23.2737435559148480
27     1          1.6624123226258951     4.9872289883081091    24.9361524656947964
28     1          3.3248206554670015     3.3248206554670015    19.9489257363549584
29     1          4.9872289883081091     1.6624123226258949    24.9361524656947964
30     1          0.0000000000000012     0.0000000000000012    19.9489257363549584
31     1          4.9872289883081082     4.9872289883081082    21.6113346461349032
32     1          0.0000000000000016     3.3248206554670015    23.2737435559148480
33     1          1.6624123226258951     1.6624123226258951    28.2609749900035858
34     1          3.3248206554670019     0.0000000000000018    29.9233838997835342
35     1          1.6624123226258956     4.9872289883081091    31.5857928095634790
36     1          3.3248206554670019     3.3248206554670019    26.5985660802236410
37     1          4.9872289883081091     1.6624123226258953    31.5857928095634790
38     1          0.0000000000000016     0.0000000000000016    26.5985660802236410
39     1          4.9872289883081091     4.9872289883081091    28.2609749900035858
40     1          0.0000000000000020     3.3248206554670019    29.9233838997835342
41     1          1.6624123226258956     1.6624123226258956    34.9106200386211682
42     1          3.3248206554670023     0.0000000000000022    36.5730289484011166
43     1          1.6624123226258960     4.9872289883081100    38.2354378581810650
44     1          3.3248206554670023     3.3248206554670023    33.2482064240923236
45     1          4.9872289883081100     1.6624123226258958    38.2354378581810650
46     1          0.0000000000000020     0.0000000000000020    33.2482064240923236
47     1          4.9872289883081091     4.9872289883081091    34.9106200386211682
48     1          0.0000000000000024     3.3248206554670023    36.5730289484011166
49     1          1.6624123226258958     1.6624123226258958    41.5602603824898580
50     1          3.3248206554670028     0.0000000000000026    43.2226692922698064
51     1          1.6624123226258962     4.9872289883081100    44.8850782020497476
52     1          3.3248206554670028     3.3248206554670028    39.8978467679610134
53     1          4.9872289883081100     1.6624123226258960    44.8850782020497476
54     1          0.0000000000000024     0.0000000000000024    39.8978467679610134
55     1          4.9872289883081100     4.9872289883081100    41.5602603824898580
56     1          0.0000000000000029     3.3248206554670028    43.2226692922698064
ITEM: TIMESTEP energy, energy_weight, force_weight, nsims
3        -336813.0671536721056327    1    1   21
ITEM: NUMBER OF ATOMS
56        
ITEM: BOX BOUNDS xy xz yz pp pp pp
    0.0000000000000000      6.6496413109340038      0.0000000000000004
    0.0000000000000000      6.6496413109340029      0.0000000000000029
    0.0000000000000000     47.5474888354414986      0.0000000000000029
ITEM: ATOMS id type x y z
1      1          1.6624123226258933     1.6624123226258933     1.6624123616513082
2      1          3.3248206554670001     0.0000000000000002     3.3248199685537325
3      1          1.6624123226258938     4.9872289883081073     4.9872275754561572
4      1          3.3248206554670001     3.3248206554670001     0.0000000000000000
5      1          4.9872289883081073     1.6624123226258936     4.9872275754561572
6      1          0.0000000000000000     0.0000000000000000     0.0000000000000000
7      1          4.9872289883081073     4.9872289883081073     1.6624123616513082
8      1          0.0000000000000004     3.3248206554670001     3.3248199685537325
9      1          1.6624123226258938     1.6624123226258938     8.3120522987587737
10     1          3.3248206554670006     0.0000000000000006     9.9744599056611989
11     1          1.6624123226258942     4.9872289883081082    11.6368722673125067
12     1          3.3248206554670006     3.3248206554670006     6.6496399371074650
13     1          4.9872289883081082     1.6624123226258940    11.6368722673125067
14     1          0.0000000000000004     0.0000000000000004     6.6496399371074650
15     1          4.9872289883081082     4.9872289883081082     8.3120522987587737
16     1          0.0000000000000008     3.3248206554670006     9.9744599056611989
17     1          1.6624123226258942     1.6624123226258942    14.9616922358662396
18     1          3.3248206554670010     0.0000000000000010    16.6241045975175474
19     1          1.6624123226258947     4.9872289883081082    18.2865122044199744
20     1          3.3248206554670010     3.3248206554670010    13.2992846289638145
21     1          4.9872289883081082     1.6624123226258944    18.2865122044199744
22     1          0.0000000000000008     0.0000000000000008    13.2992846289638145
23     1          4.9872289883081082     4.9872289883081082    14.9616922358662396
24     1          0.0000000000000012     3.3248206554670010    16.6241045975175474
25     1          1.6624123226258947     1.6624123226258947    21.6113369277225900
26     1          3.3248206554670015     0.0000000000000014    23.2737445346250134
27     1          1.6624123226258951     4.9872289883081091    24.9361521415274368
28     1          3.3248206554670015     3.3248206554670015    19.9489245660712804
29     1          4.9872289883081091     1.6624123226258949    24.9361521415274368
30     1          0.0000000000000012     0.0000000000000012    19.9489245660712804
31     1          4.9872289883081082     4.9872289883081082    21.6113369277225900
32     1          0.0000000000000016     3.3248206554670015    23.2737445346250134
33     1          1.6624123226258951     1.6624123226258951    28.2609768648300559
34     1          3.3248206554670019     0.0000000000000018    29.9233844717324793
35     1          1.6624123226258956     4.9872289883081091    31.5857920786349062
36     1          3.3248206554670019     3.3248206554670019    26.5985645031787463
37     1          4.9872289883081091     1.6624123226258953    31.5857920786349062
38     1          0.0000000000000016     0.0000000000000016    26.5985645031787463
39     1          4.9872289883081091     4.9872289883081091    28.2609768648300559
40     1          0.0000000000000020     3.3248206554670019    29.9233844717324793
41     1          1.6624123226258956     1.6624123226258956    34.9106168019375218
42     1          3.3248206554670023     0.0000000000000022    36.5730244088399488
43     1          1.6624123226258960     4.9872289883081100    38.2354367704912548
44     1          3.3248206554670023     3.3248206554670023    33.2482044402862158
45     1          4.9872289883081100     1.6624123226258958    38.2354367704912548
46     1          0.0000000000000020     0.0000000000000020    33.2482044402862158
47     1          4.9872289883081091     4.9872289883081091    34.9106168019375218
48     1          0.0000000000000024     3.3248206554670023    36.5730244088399488
49     1          1.6624123226258958     1.6624123226258958    41.5602614937938739
50     1          3.3248206554670028     0.0000000000000026    43.2226691006962938
51     1          1.6624123226258962     4.9872289883081100    44.8850767075987207
52     1          3.3248206554670028     3.3248206554670028    39.8978491321425608
53     1          4.9872289883081100     1.6624123226258960    44.8850767075987207
54     1          0.0000000000000024     0.0000000000000024    39.8978491321425608
55     1          4.9872289883081100     4.9872289883081100    41.5602614937938739
56     1          0.0000000000000029     3.3248206554670028    43.2226691006962938
ITEM: TIMESTEP energy, energy_weight, force_weight, nsims
4        -336811.8932643833104521    1    1   21
ITEM: NUMBER OF ATOMS
56        
ITEM: BOX BOUNDS xy xz yz pp pp pp
    0.0000000000000000      6.6496413109340038      0.0000000000000004
    0.0000000000000000      6.6496413109340029      0.0000000000000029
    0.0000000000000000     48.0474886648932440      0.0000000000000029
ITEM: ATOMS id type x y z
1      1          1.6624123226258933     1.6624123226258933     1.6624142793121075
2      1          3.3248206554670001     0.0000000000000002     3.3248189491264815
3      1          1.6624123226258938     4.9872289883081073     4.9872284236897224
4      1          3.3248206554670001     3.3248206554670001     0.0000000000000000
5      1          4.9872289883081073     1.6624123226258936     4.9872284236897224
6      1          0.0000000000000000     0.0000000000000000     0.0000000000000000
7      1          4.9872289883081073     4.9872289883081073     1.6624142793121075
8      1          0.0000000000000004     3.3248206554670001     3.3248189491264815
9      1          1.6624123226258938     1.6624123226258938     8.3120521775650698
10     1          3.3248206554670006     0.0000000000000006     9.9744616521283120
11     1          1.6624123226258942     4.9872289883081082    11.6368711266915525
12     1          3.3248206554670006     3.3248206554670006     6.6496427030018301
13     1          4.9872289883081082     1.6624123226258940    11.6368711266915525
14     1          0.0000000000000004     0.0000000000000004     6.6496427030018301
15     1          4.9872289883081082     4.9872289883081082     8.3120521775650698
16     1          0.0000000000000008     3.3248206554670006     9.9744616521283120
17     1          1.6624123226258942     1.6624123226258942    14.9616948805669008
18     1          3.3248206554670010     0.0000000000000010    16.6241043551301395
19     1          1.6624123226258947     4.9872289883081082    18.2865138296933836
20     1          3.3248206554670010     3.3248206554670010    13.2992806012547931
21     1          4.9872289883081082     1.6624123226258944    18.2865138296933836
22     1          0.0000000000000008     0.0000000000000008    13.2992806012547931
23     1          4.9872289883081082     4.9872289883081082    14.9616948805669008
24     1          0.0000000000000012     3.3248206554670010    16.6241043551301395
25     1          1.6624123226258947     1.6624123226258947    21.6113375835687300
26     1          3.3248206554670015     0.0000000000000014    23.2737422533831051
27     1          1.6624123226258951     4.9872289883081091    24.9361517279463456
28     1          3.3248206554670015     3.3248206554670015    19.9489233042566241
29     1          4.9872289883081091     1.6624123226258949    24.9361517279463456
30     1          0.0000000000000012     0.0000000000000012    19.9489233042566241
31     1          4.9872289883081082     4.9872289883081082    21.6113375835687300
32     1          0.0000000000000016     3.3248206554670015    23.2737422533831051
33     1          1.6624123226258951     1.6624123226258951    28.2609754818216921
34     1          3.3248206554670019     0.0000000000000018    29.9233849563849361
35     1          1.6624123226258956     4.9872289883081091    31.5857944309481766
36     1          3.3248206554670019     3.3248206554670019    26.5985660072584515
37     1          4.9872289883081091     1.6624123226258953    31.5857944309481766
38     1          0.0000000000000016     0.0000000000000016    26.5985660072584515
39     1          4.9872289883081091     4.9872289883081091    28.2609754818216921
40     1          0.0000000000000020     3.3248206554670019    29.9233849563849361
41     1          1.6624123226258956     1.6624123226258956    34.9106181848235266
42     1          3.3248206554670023     0.0000000000000022    36.5730276593867671
43     1          1.6624123226258960     4.9872289883081100    38.2354371339500076
44     1          3.3248206554670023     3.3248206554670023    33.2482039055114171
45     1          4.9872289883081100     1.6624123226258958    38.2354371339500076
46     1          0.0000000000000020     0.0000000000000020    33.2482039055114171
47     1          4.9872289883081091     4.9872289883081091    34.9106181848235266
48     1          0.0000000000000024     3.3248206554670023    36.5730276593867671
49     1          1.6624123226258958     1.6624123226258958    41.5602608878253506
50     1          3.3248206554670028     0.0000000000000026    43.2226655576397292
51     1          1.6624123226258962     4.9872289883081100    44.8850750322029697
52     1          3.3248206554670028     3.3248206554670028    39.8978466085132482
53     1          4.9872289883081100     1.6624123226258960    44.8850750322029697
54     1          0.0000000000000024     0.0000000000000024    39.8978466085132482
55     1          4.9872289883081100     4.9872289883081100    41.5602608878253506
56     1          0.0000000000000029     3.3248206554670028    43.2226655576397292
ITEM: TIMESTEP energy, energy_weight, force_weight, nsims
5        -336811.1508553184103221    1    1   21
ITEM: NUMBER OF ATOMS
56        
ITEM: BOX BOUNDS xy xz yz pp pp pp
    0.0000000000000000      6.6496413109340038      0.0000000000000004
    0.0000000000000000      6.6496413109340029      0.0000000000000030
    0.0000000000000000     48.5474884943449965      0.0000000000000030
ITEM: ATOMS id type x y z
1      1          1.6624123226258933     1.6624123226258933     1.6624116485118559
2      1          3.3248206554670001     0.0000000000000002     3.3248184422748621
3      1          1.6624123226258938     4.9872289883081073     4.9872300907867180
4      1          3.3248206554670001     3.3248206554670001     0.0000000000000000
5      1          4.9872289883081073     1.6624123226258936     4.9872300907867180
6      1          0.0000000000000000     0.0000000000000000     0.0000000000000000
7      1          4.9872289883081073     4.9872289883081073     1.6624116485118559
8      1          0.0000000000000004     3.3248206554670001     3.3248184422748621
9      1          1.6624123226258938     1.6624123226258938     8.3120533878104297
10     1          3.3248206554670006     0.0000000000000006     9.9744601815734359
11     1          1.6624123226258942     4.9872289883081082    11.6368718300852905
12     1          3.3248206554670006     3.3248206554670006     6.6496417392985734
13     1          4.9872289883081082     1.6624123226258940    11.6368718300852905
14     1          0.0000000000000004     0.0000000000000004     6.6496417392985734
15     1          4.9872289883081082     4.9872289883081082     8.3120533878104297
16     1          0.0000000000000008     3.3248206554670006     9.9744601815734359
17     1          1.6624123226258942     1.6624123226258942    14.9616951271090013
18     1          3.3248206554670010     0.0000000000000010    16.6241019208720076
19     1          1.6624123226258947     4.9872289883081082    18.2865135693838674
20     1          3.3248206554670010     3.3248206554670010    13.2992834785971468
21     1          4.9872289883081082     1.6624123226258944    18.2865135693838674
22     1          0.0000000000000008     0.0000000000000008    13.2992834785971468
23     1          4.9872289883081082     4.9872289883081082    14.9616951271090013
24     1          0.0000000000000012     3.3248206554670010    16.6241019208720076
25     1          1.6624123226258947     1.6624123226258947    21.6113368664075765
26     1          3.3248206554670015     0.0000000000000014    23.2737436601705809
27     1          1.6624123226258951     4.9872289883081091    24.9361504539335854
28     1          3.3248206554670015     3.3248206554670015    19.9489252178957202
29     1          4.9872289883081091     1.6624123226258949    24.9361504539335854
30     1          0.0000000000000012     0.0000000000000012    19.9489252178957202
31     1          4.9872289883081082     4.9872289883081082    21.6113368664075765
32     1          0.0000000000000016     3.3248206554670015    23.2737436601705809
33     1          1.6624123226258951     1.6624123226258951    28.2609786057061534
34     1          3.3248206554670019     0.0000000000000018    29.9233853994691579
35     1          1.6624123226258956     4.9872289883081091    31.5857921932321624
36     1          3.3248206554670019     3.3248206554670019    26.5985621024454417
37     1          4.9872289883081091     1.6624123226258953    31.5857921932321624
38     1          0.0000000000000016     0.0000000000000016    26.5985621024454417
39     1          4.9872289883081091     4.9872289883081091    28.2609786057061534
40     1          0.0000000000000020     3.3248206554670019    29.9233853994691579
41     1          1.6624123226258956     1.6624123226258956    34.9106154902558714
42     1          3.3248206554670023     0.0000000000000022    36.5730271387677348
43     1          1.6624123226258960     4.9872289883081100    38.2354339325307393
44     1          3.3248206554670023     3.3248206554670023    33.2482038417440151
45     1          4.9872289883081100     1.6624123226258958    38.2354339325307393
46     1          0.0000000000000020     0.0000000000000020    33.2482038417440151
47     1          4.9872289883081091     4.9872289883081091    34.9106154902558714
48     1          0.0000000000000024     3.3248206554670023    36.5730271387677348
49     1          1.6624123226258958     1.6624123226258958    41.5602572295544448
50     1          3.3248206554670028     0.0000000000000026    43.2226688780663011
51     1          1.6624123226258962     4.9872289883081100    44.8850756718293127
52     1          3.3248206554670028     3.3248206554670028    39.8978455810425956
53     1          4.9872289883081100     1.6624123226258960    44.8850756718293127
54     1          0.0000000000000024     0.0000000000000024    39.8978455810425956
55     1          4.9872289883081100     4.9872289883081100    41.5602572295544448
56     1          0.0000000000000029     3.3248206554670028    43.2226688780663011
ITEM: TIMESTEP energy, energy_weight, force_weight, nsims
6        -336810.7327772513381205    1    1   21
ITEM: NUMBER OF ATOMS
56        
ITEM: BOX BOUNDS xy xz yz pp pp pp
    0.0000000000000000      6.6496413109340038      0.0000000000000004
    0.0000000000000000      6.6496413109340029      0.0000000000000030
    0.0000000000000000     49.0474883237967418      0.0000000000000030
ITEM: ATOMS id type x y z
1      1          1.6624123226258933     1.6624123226258933     1.6624106644979342
2      1          3.3248206554670001     0.0000000000000002     3.3248213289958684
3      1          1.6624123226258938     4.9872289883081073     4.9872270887449703
4      1          3.3248206554670001     3.3248206554670001     0.0000000000000000
5      1          4.9872289883081073     1.6624123226258936     4.9872270887449703
6      1          0.0000000000000000     0.0000000000000000     0.0000000000000000
7      1          4.9872289883081073     4.9872289883081073     1.6624106644979342
8      1          0.0000000000000004     3.3248206554670001     3.3248213289958684
9      1          1.6624123226258938     1.6624123226258938     8.3120533224896711
10     1          3.3248206554670006     0.0000000000000006     9.9744639869876064
11     1          1.6624123226258942     4.9872289883081082    11.6368697467367088
12     1          3.3248206554670006     3.3248206554670006     6.6496426579917367
13     1          4.9872289883081082     1.6624123226258940    11.6368697467367088
14     1          0.0000000000000004     0.0000000000000004     6.6496426579917367
15     1          4.9872289883081082     4.9872289883081082     8.3120533224896711
16     1          0.0000000000000008     3.3248206554670006     9.9744639869876064
17     1          1.6624123226258942     1.6624123226258942    14.9616959804814105
18     1          3.3248206554670010     0.0000000000000010    16.6241017402305111
19     1          1.6624123226258947     4.9872289883081082    18.2865124047284482
20     1          3.3248206554670010     3.3248206554670010    13.2992804112346423
21     1          4.9872289883081082     1.6624123226258944    18.2865124047284482
22     1          0.0000000000000008     0.0000000000000008    13.2992804112346423
23     1          4.9872289883081082     4.9872289883081082    14.9616959804814105
24     1          0.0000000000000012     3.3248206554670010    16.6241017402305111
25     1          1.6624123226258947     1.6624123226258947    21.6113337337243117
26     1          3.3248206554670015     0.0000000000000014    23.2737443982222487
27     1          1.6624123226258951     4.9872289883081091    24.9361501579713511
28     1          3.3248206554670015     3.3248206554670015    19.9489230692263817
29     1          4.9872289883081091     1.6624123226258949    24.9361501579713511
30     1          0.0000000000000012     0.0000000000000012    19.9489230692263817
31     1          4.9872289883081082     4.9872289883081082    21.6113337337243117
32     1          0.0000000000000016     3.3248206554670015    23.2737443982222487
33     1          1.6624123226258951     1.6624123226258951    28.2609763917160528
34     1          3.3248206554670019     0.0000000000000018    29.9233870562139863
35     1          1.6624123226258956     4.9872289883081091    31.5857928159630923
36     1          3.3248206554670019     3.3248206554670019    26.5985657272181193
37     1          4.9872289883081091     1.6624123226258953    31.5857928159630923
38     1          0.0000000000000016     0.0000000000000016    26.5985657272181193
39     1          4.9872289883081091     4.9872289883081091    28.2609763917160528
40     1          0.0000000000000020     3.3248206554670019    29.9233870562139863
41     1          1.6624123226258956     1.6624123226258956    34.9106190497077904
42     1          3.3248206554670023     0.0000000000000022    36.5730248094568964
43     1          1.6624123226258960     4.9872289883081100    38.2354354739548228
44     1          3.3248206554670023     3.3248206554670023    33.2482034804610223
45     1          4.9872289883081100     1.6624123226258958    38.2354354739548228
46     1          0.0000000000000020     0.0000000000000020    33.2482034804610223
47     1          4.9872289883081091     4.9872289883081091    34.9106190497077904
48     1          0.0000000000000024     3.3248206554670023    36.5730248094568964
49     1          1.6624123226258958     1.6624123226258958    41.5602568029506969
50     1          3.3248206554670028     0.0000000000000026    43.2226674674486233
51     1          1.6624123226258962     4.9872289883081100    44.8850732271977364