ITEM: TIMESTEP energy, energy_weight, force_weight, nsims
1        -24036.5150359020444739    1    1   98
ITEM: NUMBER OF ATOMS
4         
ITEM: BOX BOUNDS xy xz yz pp pp pp
    0.0000000000000000      4.5771186152254995      0.0000000000000003
    0.0000000000000000      4.5771186152254995      0.0000000000000002
    0.0000000000000000      2.5171451883757263      0.0000000000000002
ITEM: ATOMS id type x y z
1      1          0.0000000000000000     0.0000000000000000     0.0000000000000000
2      1          2.2885593076127497     0.0000000000000000     0.6292878073810446
3      1          2.2885593076127497     2.2885593076127497     1.2585725941878632
4      1          0.0000000000000003     2.2885593076127497     1.8878573809946817
ITEM: TIMESTEP energy, energy_weight, force_weight, nsims
2        -24047.2177656289022707    1    1   98
ITEM: NUMBER OF ATOMS
4         
ITEM: BOX BOUNDS xy xz yz pp pp pp
    0.0000000000000000      4.8492744743862009      0.0000000000000003
    0.0000000000000000      4.8492744743862000      0.0000000000000002
    0.0000000000000000      2.6668148537184213      0.0000000000000002
ITEM: ATOMS id type x y z
1      1          0.0000000000000000     0.0000000000000000     0.0000000000000000
2      1          2.4246372371931000     0.0000000000000000     0.6667053135185176
3      1          2.4246372371931000     2.4246372371931000     1.3334074268592107
4      1          0.0000000000000003     2.4246372371931000     2.0001095401999036
ITEM: TIMESTEP energy, energy_weight, force_weight, nsims
3        -24048.0509959937517124    1    1   98
ITEM: NUMBER OF ATOMS
4         
ITEM: BOX BOUNDS xy xz yz pp pp pp
    0.0000000000000000      4.8785908939808005      0.0000000000000003
    0.0000000000000000      4.8785908939807996      0.0000000000000002
    0.0000000000000000      2.6829371548266949      0.0000000000000002
ITEM: ATOMS id type x y z
1      1          0.0000000000000000     0.0000000000000000     0.0000000000000000
2      1          2.4392954469903998     0.0000000000000000     0.6707358984689666
3      1          2.4392954469903998     2.4392954469903998     1.3414685774133475
4      1          0.0000000000000003     2.4392954469903998     2.0122012563577281
ITEM: TIMESTEP energy, energy_weight, force_weight, nsims
4        -24048.8290012383185967    1    1   98
ITEM: NUMBER OF ATOMS
4         
ITEM: BOX BOUNDS xy xz yz pp pp pp
    0.0000000000000000      4.9076956426758009      0.0000000000000003
    0.0000000000000000      4.9076956426758001      0.0000000000000002
    0.0000000000000000      2.6989430494287721      0.0000000000000002
ITEM: ATOMS id type x y z
1      1          0.0000000000000000     0.0000000000000000     0.0000000000000000
2      1          2.4538478213379000     0.0000000000000000     0.6747373817230227
3      1          2.4538478213379000     2.4538478213379000     1.3494715247143860
4      1          0.0000000000000003     2.4538478213379000     2.0242056677057492
ITEM: TIMESTEP energy, energy_weight, force_weight, nsims
5        -24049.5552361214686243    1    1   98
ITEM: NUMBER OF ATOMS
4         
ITEM: BOX BOUNDS xy xz yz pp pp pp
    0.0000000000000000      4.9366945559210009      0.0000000000000003
    0.0000000000000000      4.9366945559210000      0.0000000000000002
    0.0000000000000000      2.7148907407777507      0.0000000000000002
ITEM: ATOMS id type x y z
1      1          0.0000000000000000     0.0000000000000000     0.0000000000000000
2      1          2.4683472779605000     0.0000000000000000     0.6787243141288822
3      1          2.4683472779605000     2.4683472779605000     1.3574453703888754
4      1          0.0000000000000003     2.4683472779605000     2.0361664266488684
ITEM: TIMESTEP energy, energy_weight, force_weight, nsims
6        -24050.2329242412270105    1    1   98
ITEM: NUMBER OF ATOMS
4         
ITEM: BOX BOUNDS xy xz yz pp pp pp
    0.0000000000000000      4.9654288805417011      0.0000000000000003
    0.0000000000000000      4.9654288805417002      0.0000000000000002
    0.0000000000000000      2.7306929239939830      0.0000000000000002
ITEM: ATOMS id type x y z
1      1          0.0000000000000000     0.0000000000000000     0.0000000000000000
2      1          2.4827144402708501     0.0000000000000000     0.6826748694142502
3      1          2.4827144402708501     2.4827144402708501     1.3653464619969915
4      1          0.0000000000000003     2.4827144402708501     2.0480180545797326
ITEM: TIMESTEP energy, energy_weight, force_weight, nsims
7        -24050.8650909606294590    1    1   98
ITEM: NUMBER OF ATOMS
4         
ITEM: BOX BOUNDS xy xz yz pp pp pp
    0.0000000000000000      4.9940573697126007      0.0000000000000003
    0.0000000000000000      4.9940573697125998      0.0000000000000002
    0.0000000000000000      2.7464369039571168      0.0000000000000002
ITEM: ATOMS id type x y z
1      1          0.0000000000000000     0.0000000000000000     0.0000000000000000
2      1          2.4970286848562999     0.0000000000000000     0.6866108738514216
3      1          2.4970286848562999     2.4970286848562999     1.3732184519785584
4      1          0.0000000000000003     2.4970286848562999     2.0598260301056950
ITEM: TIMESTEP energy, energy_weight, force_weight, nsims
8        -24051.4545767412528221    1    1   98
ITEM: NUMBER OF ATOMS
4         
ITEM: BOX BOUNDS xy xz yz pp pp pp
    0.0000000000000000      5.0225271057088001      0.0000000000000003
    0.0000000000000000      5.0225271057087992      0.0000000000000002
    0.0000000000000000      2.7620935790406027      0.0000000000000002
ITEM: ATOMS id type x y z
1      1          0.0000000000000000     0.0000000000000000     0.0000000000000000
2      1          2.5112635528543996     0.0000000000000000     0.6905250520162981
3      1          2.5112635528543996     2.5112635528543996     1.3810467895203014
4      1          0.0000000000000003     2.5112635528543996     2.0715685270243047
ITEM: TIMESTEP energy, energy_weight, force_weight, nsims
9        -24052.0039921083953232    1    1   98
ITEM: NUMBER OF ATOMS
4         
ITEM: BOX BOUNDS xy xz yz pp pp pp
    0.0000000000000000      5.0508380885303010      0.0000000000000003
    0.0000000000000000      5.0508380885303001      0.0000000000000002
    0.0000000000000000      2.7776629492444416      0.0000000000000002
ITEM: ATOMS id type x y z
1      1          0.0000000000000000     0.0000000000000000     0.0000000000000000
2      1          2.5254190442651501     0.0000000000000000     0.6944174039088800
3      1          2.5254190442651501     2.5254190442651501     1.3888314746222208
4      1          0.0000000000000003     2.5254190442651501     2.0832455453355614
ITEM: TIMESTEP energy, energy_weight, force_weight, nsims
10       -24052.5158425513400289    1    1   98
ITEM: NUMBER OF ATOMS
4         
ITEM: BOX BOUNDS xy xz yz pp pp pp
    0.0000000000000000      5.0789903181770999      0.0000000000000003
    0.0000000000000000      5.0789903181770990      0.0000000000000002
    0.0000000000000000      2.7931450145686321      0.0000000000000002
ITEM: ATOMS id type x y z
1      1          0.0000000000000000     0.0000000000000000     0.0000000000000000
2      1          2.5394951590885495     0.0000000000000000     0.6982879295291669
3      1          2.5394951590885495     2.5394951590885495     1.3965725072843160
4      1          0.0000000000000003     2.5394951590885495     2.0948570850394654
ITEM: TIMESTEP energy, energy_weight, force_weight, nsims
11       -24052.9924308344961901    1    1   98
ITEM: NUMBER OF ATOMS
4         
ITEM: BOX BOUNDS xy xz yz pp pp pp
    0.0000000000000000      5.1069308769243005      0.0000000000000003
    0.0000000000000000      5.1069308769242996      0.0000000000000002
    0.0000000000000000      2.8085106733866265      0.0000000000000002
ITEM: ATOMS id type x y z
1      1          0.0000000000000000     0.0000000000000000     0.0000000000000000
2      1          2.5534654384621498     0.0000000000000000     0.7021293534530607
3      1          2.5534654384621498     2.5534654384621498     1.4042553366933133
4      1          0.0000000000000003     2.5534654384621498     2.1063813199335657
ITEM: TIMESTEP energy, energy_weight, force_weight, nsims
12       -24038.0525497167800495    1    1   98
ITEM: NUMBER OF ATOMS
4         
ITEM: BOX BOUNDS xy xz yz pp pp pp
    0.0000000000000000      4.6081813197417993      0.0000000000000003
    0.0000000000000000      4.6081813197417993      0.0000000000000002
    0.0000000000000000      2.5342278431601253      0.0000000000000002
ITEM: ATOMS id type x y z
1      1          0.0000000000000000     0.0000000000000000     0.0000000000000000
2      1          2.3040906598708997     0.0000000000000000     0.6335584813267373
3      1          2.3040906598708997     2.3040906598708997     1.2671139215800626
4      1          0.0000000000000003     2.3040906598708997     1.9006693618333881
ITEM: TIMESTEP energy, energy_weight, force_weight, nsims
13       -24053.4359047533616831    1    1   98
ITEM: NUMBER OF ATOMS
4         
ITEM: BOX BOUNDS xy xz yz pp pp pp
    0.0000000000000000      5.1347656002217006      0.0000000000000003
    0.0000000000000000      5.1347656002216997      0.0000000000000002
    0.0000000000000000      2.8238181289515221      0.0000000000000002
ITEM: ATOMS id type x y z
1      1          0.0000000000000000     0.0000000000000000     0.0000000000000000
2      1          2.5673828001108498     0.0000000000000000     0.7059562265287579
3      1          2.5673828001108498     2.5673828001108498     1.4119090644757610
4      1          0.0000000000000003     2.5673828001108498     2.1178619024227641
ITEM: TIMESTEP energy, energy_weight, force_weight, nsims
14       -24053.8483594493736746    1    1   98
ITEM: NUMBER OF ATOMS
4         
ITEM: BOX BOUNDS xy xz yz pp pp pp
    0.0000000000000000      5.1624415703444004      0.0000000000000003
    0.0000000000000000      5.1624415703443995      0.0000000000000002
    0.0000000000000000      2.8390382796367692      0.0000000000000002
ITEM: ATOMS id type x y z
1      1          0.0000000000000000     0.0000000000000000     0.0000000000000000
2      1          2.5812207851721998     0.0000000000000000     0.7097612733321601
3      1          2.5812207851721998     2.5812207851721998     1.4195191398183846
4      1          0.0000000000000003     2.5812207851721998     2.1292770063046089
ITEM: TIMESTEP energy, energy_weight, force_weight, nsims
15       -24054.2317202648700913    1    1   98
ITEM: NUMBER OF ATOMS
4         
ITEM: BOX BOUNDS xy xz yz pp pp pp
    0.0000000000000000      5.1900117050173007      0.0000000000000003
    0.0000000000000000      5.1900117050172998      0.0000000000000002
    0.0000000000000000      2.8542002270689188      0.0000000000000002
ITEM: ATOMS id type x y z
1      1          0.0000000000000000     0.0000000000000000     0.0000000000000000
2      1          2.5950058525086499     0.0000000000000000     0.7135517692873660
3      1          2.5950058525086499     2.5950058525086499     1.4271001135344594
4      1          0.0000000000000003     2.5950058525086499     2.1406484577815528
ITEM: TIMESTEP energy, energy_weight, force_weight, nsims
16       -24054.5878035605419427    1    1   98
ITEM: NUMBER OF ATOMS
4         
ITEM: BOX BOUNDS xy xz yz pp pp pp
    0.0000000000000000      5.2173701687906009      0.0000000000000003
    0.0000000000000000      5.2173701687906000      0.0000000000000002
    0.0000000000000000      2.8692457679948715      0.0000000000000002
ITEM: ATOMS id type x y z
1      1          0.0000000000000000     0.0000000000000000     0.0000000000000000
2      1          2.6086850843953000     0.0000000000000000     0.7173131635461787
3      1          2.6086850843953000     2.6086850843953000     1.4346228839974358
4      1          0.0000000000000003     2.6086850843953000     2.1519326044486928
ITEM: TIMESTEP energy, energy_weight, force_weight, nsims
17       -24054.9182568503711082    1    1   98
ITEM: NUMBER OF ATOMS
4         
ITEM: BOX BOUNDS xy xz yz pp pp pp
    0.0000000000000000      5.2446227971141006      0.0000000000000003
    0.0000000000000000      5.2446227971140997      0.0000000000000002
    0.0000000000000000      2.8842331056677248      0.0000000000000002
ITEM: ATOMS id type x y z
1      1          0.0000000000000000     0.0000000000000000     0.0000000000000000
2      1          2.6223113985570499     0.0000000000000000     0.7210600069567946
3      1          2.6223113985570499     2.6223113985570499     1.4421165528338624
4      1          0.0000000000000003     2.6223113985570499     2.1631730987109301
ITEM: TIMESTEP energy, energy_weight, force_weight, nsims
18       -24055.2245351277015288    1    1   98
ITEM: NUMBER OF ATOMS
4         
ITEM: BOX BOUNDS xy xz yz pp pp pp
    0.0000000000000000      5.2717166722629001      0.0000000000000003
    0.0000000000000000      5.2717166722628992      0.0000000000000002
    0.0000000000000000      2.8991331384609311      0.0000000000000002
ITEM: ATOMS id type x y z
1      1          0.0000000000000000     0.0000000000000000     0.0000000000000000
2      1          2.6358583361314496     0.0000000000000000     0.7247850240951159
3      1          2.6358583361314496     2.6358583361314496     1.4495665692304656
4      1          0.0000000000000003     2.6358583361314496     2.1743481143658152
ITEM: TIMESTEP energy, energy_weight, force_weight, nsims
19       -24055.7701677026088873    1    1   98
ITEM: NUMBER OF ATOMS
4         
ITEM: BOX BOUNDS xy xz yz pp pp pp
    0.0000000000000000      5.3255339984862005      0.0000000000000003
    0.0000000000000000      5.3255339984861996      0.0000000000000002
    0.0000000000000000      2.9287294926614993      0.0000000000000002
ITEM: ATOMS id type x y z
1      1          0.0000000000000000     0.0000000000000000     0.0000000000000000
2      1          2.6627669992430998     0.0000000000000000     0.7321841304030705
3      1          2.6627669992430998     2.6627669992430998     1.4643647463307496
4      1          0.0000000000000003     2.6627669992430998     2.1965453622584290
ITEM: TIMESTEP energy, energy_weight, force_weight, nsims
20       -24056.0121210966790386    1    1   98
ITEM: NUMBER OF ATOMS
4         
ITEM: BOX BOUNDS xy xz yz pp pp pp
    0.0000000000000000      5.3522045318358007      0.0000000000000003
    0.0000000000000000      5.3522045318357998      0.0000000000000002
    0.0000000000000000      2.9433967124423117      0.0000000000000002
ITEM: ATOMS id type x y z
1      1          0.0000000000000000     0.0000000000000000     0.0000000000000000
2      1          2.6761022659178999     0.0000000000000000     0.7358509441486054
3      1          2.6761022659178999     2.6761022659178999     1.4716983562211559
4      1          0.0000000000000003     2.6761022659178999     2.2075457682937061
ITEM: TIMESTEP energy, energy_weight, force_weight, nsims
21       -24056.2351442027502344    1    1   98
ITEM: NUMBER OF ATOMS
4         
ITEM: BOX BOUNDS xy xz yz pp pp pp
    0.0000000000000000      5.3787692297356005      0.0000000000000003
    0.0000000000000000      5.3787692297355996      0.0000000000000002
    0.0000000000000000      2.9580057289700257      0.0000000000000002
ITEM: ATOMS id type x y z
1      1          0.0000000000000000     0.0000000000000000     0.0000000000000000
2      1          2.6893846148677998     0.0000000000000000     0.7395032070459439
3      1          2.6893846148677998     2.6893846148677998     1.4790028644850128
4      1          0.0000000000000003     2.6893846148677998     2.2185025219240817
ITEM: TIMESTEP energy, energy_weight, force_weight, nsims
22       -24039.4885125059481652    1    1   98
ITEM: NUMBER OF ATOMS
4         
ITEM: BOX BOUNDS xy xz yz pp pp pp
    0.0000000000000000      4.6389794356336003      0.0000000000000003
    0.0000000000000000      4.6389794356336003      0.0000000000000002
    0.0000000000000000      2.5511649898117779      0.0000000000000002
ITEM: ATOMS id type x y z
1      1          0.0000000000000000     0.0000000000000000     0.0000000000000000
2      1          2.3194897178168001     0.0000000000000000     0.6377927781519384
3      1          2.3194897178168001     2.3194897178168001     1.2755824949058889
4      1          0.0000000000000003     2.3194897178168001     1.9133722116598395
ITEM: TIMESTEP energy, energy_weight, force_weight, nsims
23       -24056.4403550010247272    1    1   98
ITEM: NUMBER OF ATOMS
4         
ITEM: BOX BOUNDS xy xz yz pp pp pp
    0.0000000000000000      5.4052280921856006      0.0000000000000003
    0.0000000000000000      5.4052280921855997      0.0000000000000002
    0.0000000000000000      2.9725565422446407      0.0000000000000002
ITEM: ATOMS id type x y z
1      1          0.0000000000000000     0.0000000000000000     0.0000000000000000
2      1          2.7026140460927999     0.0000000000000000     0.7431409190950856
3      1          2.7026140460927999     2.7026140460927999     1.4862782711223204
4      1          0.0000000000000003     2.7026140460927999     2.2294156231495550
ITEM: TIMESTEP energy, energy_weight, force_weight, nsims
24       -24056.6288080691665527    1    1   98
ITEM: NUMBER OF ATOMS
4         
ITEM: BOX BOUNDS xy xz yz pp pp pp
    0.0000000000000000      5.4315282014608997      0.0000000000000003
    0.0000000000000000      5.4315282014608988      0.0000000000000002
    0.0000000000000000      2.9870200506396083      0.0000000000000002
ITEM: ATOMS id type x y z
1      1          0.0000000000000000     0.0000000000000000     0.0000000000000000
2      1          2.7157641007304494     0.0000000000000000     0.7467568048719325
3      1          2.7157641007304494     2.7157641007304494     1.4935100253198041
4      1          0.0000000000000003     2.7157641007304494     2.2402632457676757
ITEM: TIMESTEP energy, energy_weight, force_weight, nsims
25       -24056.8015400253025291    1    1   98
ITEM: NUMBER OF ATOMS
4         
ITEM: BOX BOUNDS xy xz yz pp pp pp
    0.0000000000000000      5.4576695575615002      0.0000000000000003
    0.0000000000000000      5.4576695575614993      0.0000000000000002
    0.0000000000000000      3.0013962541549284      0.0000000000000002
ITEM: ATOMS id type x y z
1      1          0.0000000000000000     0.0000000000000000     0.0000000000000000
2      1          2.7288347787807496     0.0000000000000000     0.7503508643764847
3      1          2.7288347787807496     2.7288347787807496     1.5006981270774642
4      1          0.0000000000000003     2.7288347787807496     2.2510453897784437
ITEM: TIMESTEP energy, energy_weight, force_weight, nsims
26       -24056.9594506142530008    1    1   98
ITEM: NUMBER OF ATOMS
4         
ITEM: BOX BOUNDS xy xz yz pp pp pp
    0.0000000000000000      5.4837579959372009      0.0000000000000003
    0.0000000000000000      5.4837579959372000      0.0000000000000002
    0.0000000000000000      3.0157433560436995      0.0000000000000002
ITEM: ATOMS id type x y z
1      1          0.0000000000000000     0.0000000000000000     0.0000000000000000
2      1          2.7418789979686000     0.0000000000000000     0.7539376484569386
3      1          2.7418789979686000     2.7418789979686000     1.5078716780218497
4      1          0.0000000000000003     2.7418789979686000     2.2618057075867610
ITEM: TIMESTEP energy, energy_weight, force_weight, nsims
27       -24057.1034187641052995    1    1   98
ITEM: NUMBER OF ATOMS
4         
ITEM: BOX BOUNDS xy xz yz pp pp pp
    0.0000000000000000      5.5096876811382005      0.0000000000000003
    0.0000000000000000      5.5096876811381996      0.0000000000000002
    0.0000000000000000      3.0300031530528226      0.0000000000000002
ITEM: ATOMS id type x y z
1      1          0.0000000000000000     0.0000000000000000     0.0000000000000000
2      1          2.7548438405690998     0.0000000000000000     0.7575026062650976
3      1          2.7548438405690998     2.7548438405690998     1.5150015765264113
4      1          0.0000000000000003     2.7548438405690998     2.2725005467877253
ITEM: TIMESTEP energy, energy_weight, force_weight, nsims
28       -24057.2342666672047926    1    1   98
ITEM: NUMBER OF ATOMS
4         
ITEM: BOX BOUNDS xy xz yz pp pp pp
    0.0000000000000000      5.5354586131645007      0.0000000000000003
    0.0000000000000000      5.5354586131644998      0.0000000000000002
    0.0000000000000000      3.0441756451822979      0.0000000000000002
ITEM: ATOMS id type x y z
1      1          0.0000000000000000     0.0000000000000000     0.0000000000000000
2      1          2.7677293065822499     0.0000000000000000     0.7610457378009616
3      1          2.7677293065822499     2.7677293065822499     1.5220878225911489
4      1          0.0000000000000003     2.7677293065822499     2.2831299073813360
ITEM: TIMESTEP energy, energy_weight, force_weight, nsims
29       -24057.3527521609248652    1    1   98
ITEM: NUMBER OF ATOMS
4         
ITEM: BOX BOUNDS xy xz yz pp pp pp
    0.0000000000000000      5.5611766274659002      0.0000000000000003
    0.0000000000000000      5.5611766274658994      0.0000000000000002
    0.0000000000000000      3.0583190356852241      0.0000000000000002
ITEM: ATOMS id type x y z
1      1          0.0000000000000000     0.0000000000000000     0.0000000000000000
2      1          2.7805883137329497     0.0000000000000000     0.7645815939127275
3      1          2.7805883137329497     2.7805883137329497     1.5291595178426121
4      1          0.0000000000000003     2.7805883137329497     2.2937374417724965
ITEM: TIMESTEP energy, energy_weight, force_weight, nsims
30       -24057.4596118577646848    1    1   98
ITEM: NUMBER OF ATOMS
4         
ITEM: BOX BOUNDS xy xz yz pp pp pp
    0.0000000000000000      5.5867358885926004      0.0000000000000003
    0.0000000000000000      5.5867358885925995      0.0000000000000002
    0.0000000000000000      3.0723751213085029      0.0000000000000002
ITEM: ATOMS id type x y z
1      1          0.0000000000000000     0.0000000000000000     0.0000000000000000
2      1          2.7933679442962998     0.0000000000000000     0.7680956237521985
3      1          2.7933679442962998     2.7933679442962998     1.5361875606542514
4      1          0.0000000000000003     2.7933679442962998     2.3042794975563043
ITEM: TIMESTEP energy, energy_weight, force_weight, nsims
31       -24057.5555144777754322    1    1   98
ITEM: NUMBER OF ATOMS
4         
ITEM: BOX BOUNDS xy xz yz pp pp pp
    0.0000000000000000      5.6121893142695001      0.0000000000000003
    0.0000000000000000      5.6121893142694992      0.0000000000000002
    0.0000000000000000      3.0863730036786827      0.0000000000000002
ITEM: ATOMS id type x y z
1      1          0.0000000000000000     0.0000000000000000     0.0000000000000000
2      1          2.8060946571347496     0.0000000000000000     0.7715951027434730
3      1          2.8060946571347496     2.8060946571347496     1.5431865018393414
4      1          0.0000000000000003     2.8060946571347496     2.3147779009352099
ITEM: TIMESTEP energy, energy_weight, force_weight, nsims
32       -24057.6410858830786310    1    1   98
ITEM: NUMBER OF ATOMS
4         
ITEM: BOX BOUNDS xy xz yz pp pp pp
    0.0000000000000000      5.6375369044966002      0.0000000000000003
    0.0000000000000000      5.6375369044965993      0.0000000000000002
    0.0000000000000000      3.1003126827957646      0.0000000000000002
ITEM: ATOMS id type x y z
1      1          0.0000000000000000     0.0000000000000000     0.0000000000000000
2      1          2.8187684522482996     0.0000000000000000     0.7750800308865509
3      1          2.8187684522482996     2.8187684522482996     1.5501563413978823
4      1          0.0000000000000003     2.8187684522482996     2.3252326519092135
ITEM: TIMESTEP energy, energy_weight, force_weight, nsims
33       -24040.8299246733186010    1    1   98
ITEM: NUMBER OF ATOMS
4         
ITEM: BOX BOUNDS xy xz yz pp pp pp
    0.0000000000000000      4.6696187983506992      0.0000000000000003
    0.0000000000000000      4.6696187983506992      0.0000000000000002
    0.0000000000000000      2.5680148315837816      0.0000000000000002
ITEM: ATOMS id type x y z
1      1          0.0000000000000000     0.0000000000000000     0.0000000000000000
2      1          2.3348093991753496     0.0000000000000000     0.6420052487048444
3      1          2.3348093991753496     2.3348093991753496     1.2840074157918908
4      1          0.0000000000000003     2.3348093991753496     1.9260095828789372
ITEM: TIMESTEP energy, energy_weight, force_weight, nsims
34       -24057.7169396906538168    1    1   98
ITEM: NUMBER OF ATOMS
4         
ITEM: BOX BOUNDS xy xz yz pp pp pp
    0.0000000000000000      5.6627257415490009      0.0000000000000003
    0.0000000000000000      5.6627257415490000      0.0000000000000002
    0.0000000000000000      3.1141650570331985      0.0000000000000002
ITEM: ATOMS id type x y z
1      1          0.0000000000000000     0.0000000000000000     0.0000000000000000
2      1          2.8313628707745000     0.0000000000000000     0.7785431327573339
3      1          2.8313628707745000     2.8313628707745000     1.5570825285165992
4      1          0.0000000000000003     2.8313628707745000     2.3356219242758645
ITEM: TIMESTEP energy, energy_weight, force_weight, nsims
35       -24057.7836010804385296    1    1   98
ITEM: NUMBER OF ATOMS
4         
ITEM: BOX BOUNDS xy xz yz pp pp pp
    0.0000000000000000      5.6878616608765000      0.0000000000000003
    0.0000000000000000      5.6878616608764991      0.0000000000000002
    0.0000000000000000      3.1279883296440829      0.0000000000000002
ITEM: ATOMS id type x y z
1      1          0.0000000000000000     0.0000000000000000     0.0000000000000000
2      1          2.8439308304382496     0.0000000000000000     0.7819989592040185
3      1          2.8439308304382496     2.8439308304382496     1.5639941648220415
4      1          0.0000000000000003     2.8439308304382496     2.3459893704400643
ITEM: TIMESTEP energy, energy_weight, force_weight, nsims
36       -24057.8416387706238311    1    1   98
ITEM: NUMBER OF ATOMS
4         
ITEM: BOX BOUNDS xy xz yz pp pp pp
    0.0000000000000000      5.7128388270293007      0.0000000000000003
    0.0000000000000000      5.7128388270292998      0.0000000000000002
    0.0000000000000000      3.1417242973753199      0.0000000000000002
ITEM: ATOMS id type x y z
1      1          0.0000000000000000     0.0000000000000000     0.0000000000000000
2      1          2.8564194135146499     0.0000000000000000     0.7854329593784084
3      1          2.8564194135146499     2.8564194135146499     1.5708621486876599
4      1          0.0000000000000003     2.8564194135146499     2.3562913379969115
ITEM: TIMESTEP energy, energy_weight, force_weight, nsims
37       -24057.8915103208273649    1    1   98
ITEM: NUMBER OF ATOMS
4         
ITEM: BOX BOUNDS xy xz yz pp pp pp
    0.0000000000000000      5.7377630754572007      0.0000000000000004
    0.0000000000000000      5.7377630754571998      0.0000000000000002
    0.0000000000000000      3.1554311634800079      0.0000000000000002
ITEM: ATOMS id type x y z
1      1          0.0000000000000000     0.0000000000000000     0.0000000000000000
2      1          2.8688815377285999     0.0000000000000000     0.7888596841287001
3      1          2.8688815377285999     2.8688815377285999     1.5777155817400039
4      1          0.0000000000000003     2.8688815377285999     2.3665714793513080
ITEM: TIMESTEP energy, energy_weight, force_weight, nsims
38       -24057.9337058082928706    1    1   98
ITEM: NUMBER OF ATOMS
4         
ITEM: BOX BOUNDS xy xz yz pp pp pp
    0.0000000000000000      5.7625285707104004      0.0000000000000004
    0.0000000000000000      5.7625285707103995      0.0000000000000002
    0.0000000000000000      3.1690507247050475      0.0000000000000002
ITEM: ATOMS id type x y z
1      1          0.0000000000000000     0.0000000000000000     0.0000000000000000
2      1          2.8812642853551997     0.0000000000000000     0.7922645826066967
3      1          2.8812642853551997     2.8812642853551997     1.5845253623525237
4      1          0.0000000000000003     2.8812642853551997     2.3767861420983509
ITEM: TIMESTEP energy, energy_weight, force_weight, nsims
39       -24057.9686396625911584    1    1   98
ITEM: NUMBER OF ATOMS
4         
ITEM: BOX BOUNDS xy xz yz pp pp pp
    0.0000000000000000      5.7872411482387003      0.0000000000000004
    0.0000000000000000      5.7872411482386994      0.0000000000000002
    0.0000000000000000      3.1826411843035389      0.0000000000000002
ITEM: ATOMS id type x y z
1      1          0.0000000000000000     0.0000000000000000     0.0000000000000000
2      1          2.8936205741193497     0.0000000000000000     0.7956622056605954
3      1          2.8936205741193497     2.8936205741193497     1.5913205921517695
4      1          0.0000000000000003     2.8936205741193497     2.3869789786429436
ITEM: TIMESTEP energy, energy_weight, force_weight, nsims
40       -24057.9967415516621259    1    1   98
ITEM: NUMBER OF ATOMS
4         
ITEM: BOX BOUNDS xy xz yz pp pp pp
    0.0000000000000000      5.8117949725922999      0.0000000000000004
    0.0000000000000000      5.8117949725922990      0.0000000000000002
    0.0000000000000000      3.1961443390223820      0.0000000000000002
ITEM: ATOMS id type x y z
1      1          0.0000000000000000     0.0000000000000000     0.0000000000000000
2      1          2.9058974862961495     0.0000000000000000     0.7990380024421990
3      1          2.9058974862961495     2.9058974862961495     1.5980721695111910
4      1          0.0000000000000003     2.9058974862961495     2.3971063365801832
ITEM: TIMESTEP energy, energy_weight, force_weight, nsims
41       -24058.0183820947204367    1    1   98
ITEM: NUMBER OF ATOMS
4         
ITEM: BOX BOUNDS xy xz yz pp pp pp