ITEM: TIMESTEP energy, energy_weight, force_weight, nsims
1        -240580.5869428146106657    1    1   11
ITEM: NUMBER OF ATOMS
40        
ITEM: BOX BOUNDS xy xz yz pp pp pp
    0.0000000000000000     59.0906833450347975      0.0000000000000004
    0.0000000000000000      5.9090683345034796      0.0000000000000002
    0.0000000000000000      3.2496330398768434      0.0000000000000002
ITEM: ATOMS id type x y z
1      1          0.0000000000000000     0.0000000000000000     0.0000000000000000
2      1          2.9545341672517402     0.0000000000000000     0.8124102097490348
3      1          2.9545341672517402     2.9545341672517398     1.6248165199384217
4      1          0.0000000000000003     2.9545341672517398     2.4372228301278085
5      1          5.9090683345034805     0.0000000000000000     0.0000000000000000
6      1          8.8636025017552189     0.0000000000000000     0.8124102097490348
7      1          8.8636025017552189     2.9545341672517398     1.6248165199384217
8      1          5.9090683345034805     2.9545341672517398     2.4372228301278085
9      1         11.8181366690069609     0.0000000000000000     0.0000000000000000
10     1         14.7726708362586994     0.0000000000000000     0.8124102097490348
11     1         14.7726708362586994     2.9545341672517398     1.6248165199384217
12     1         11.8181366690069609     2.9545341672517398     2.4372228301278085
13     1         17.7272050035104378     0.0000000000000000     0.0000000000000000
14     1         20.6817391707621780     0.0000000000000000     0.8124102097490348
15     1         20.6817391707621780     2.9545341672517398     1.6248165199384217
16     1         17.7272050035104378     2.9545341672517398     2.4372228301278085
17     1         23.6362733380139218     0.0000000000000000     0.0000000000000000
18     1         26.5908075052656585     0.0000000000000000     0.8124102097490348
19     1         26.5908075052656585     2.9545341672517398     1.6248165199384217
20     1         23.6362733380139218     2.9545341672517398     2.4372228301278085
21     1         29.5453416725173987     0.0000000000000000     0.0000000000000000
22     1         32.4998758397691390     0.0000000000000000     0.8124102097490348
23     1         32.4998758397691390     2.9545341672517398     1.6248165199384217
24     1         29.5453416725173987     2.9545341672517398     2.4372228301278085
25     1         35.4544100070208756     0.0000000000000000     0.0000000000000000
26     1         38.4089441742726194     0.0000000000000000     0.8124102097490348
27     1         38.4089441742726194     2.9545341672517398     1.6248165199384217
28     1         35.4544100070208756     2.9545341672517398     2.4372228301278085
29     1         41.3634783415243561     0.0000000000000000     0.0000000000000000
30     1         44.3180125087760999     0.0000000000000000     0.8124102097490348
31     1         44.3180125087760999     2.9545341672517398     1.6248165199384217
32     1         41.3634783415243561     2.9545341672517398     2.4372228301278085
33     1         47.2725466760278437     0.0000000000000000     0.0000000000000000
34     1         50.2270808432795732     0.0000000000000000     0.8124102097490348
35     1         50.2270808432795732     2.9545341672517398     1.6248165199384217
36     1         47.2725466760278437     2.9545341672517398     2.4372228301278085
37     1         53.1816150105313170     0.0000000000000000     0.0000000000000000
38     1         56.1361491777830537     0.0000000000000000     0.8124102097490348
39     1         56.1361491777830537     2.9545341672517398     1.6248165199384217
40     1         53.1816150105313170     2.9545341672517398     2.4372228301278085
ITEM: TIMESTEP energy, energy_weight, force_weight, nsims
2        -240580.3242279416299425    1    1   11
ITEM: NUMBER OF ATOMS
40        
ITEM: BOX BOUNDS xy xz yz pp pp pp
    0.0000000000000000     59.5907029276148990      0.0000000000000004
    0.0000000000000000      5.9090736930052206      0.0000000000000002
    0.0000000000000000      3.2496598027516232      0.0000000000000002
ITEM: ATOMS id type x y z
1      1          0.0000000000000000     0.0000000000000000     0.0000000000000000
2      1          2.9545368465026103     0.0000000000000000     0.8124169004837876
3      1          2.9545368465026103     2.9545368465026103     1.6248299013758116
4      1          0.0000000000000003     2.9545368465026103     2.4372429022678359
5      1          5.9090677339349282     0.0000000000000000     0.0000000000000000
6      1          8.8636045804375385     0.0000000000000000     0.8124169004837876
7      1          8.8636045804375385     2.9545368465026103     1.6248299013758116
8      1          5.9090677339349282     2.9545368465026103     2.4372429022678359
9      1         11.8181414269401497     0.0000000000000000     0.0000000000000000
10     1         14.7726782734427591     0.0000000000000000     0.8124169004837876
11     1         14.7726782734427591     2.9545368465026103     1.6248299013758116
12     1         11.8181414269401497     2.9545368465026103     2.4372429022678359
13     1         17.7272091608750770     0.0000000000000000     0.0000000000000000
14     1         20.6817460073776900     0.0000000000000000     0.8124169004837876
15     1         20.6817460073776900     2.9545368465026103     1.6248299013758116
16     1         17.7272091608750770     2.9545368465026103     2.4372429022678359
17     1         23.6362828538802994     0.0000000000000000     0.0000000000000000
18     1         26.5908137413126155     0.0000000000000000     0.8124169004837876
19     1         26.5908137413126155     2.9545368465026103     1.6248299013758116
20     1         23.6362828538802994     2.9545368465026103     2.4372429022678359
21     1         29.5453505878152249     0.0000000000000000     0.0000000000000000
22     1         32.4998874343178414     0.0000000000000000     0.8124169004837876
23     1         32.4998874343178414     2.9545368465026103     1.6248299013758116
24     1         29.5453505878152249     2.9545368465026103     2.4372429022678359
25     1         35.4544242808204473     0.0000000000000000     0.0000000000000000
26     1         38.4089551682527670     0.0000000000000000     0.8124169004837876
27     1         38.4089551682527670     2.9545368465026103     1.6248299013758116
28     1         35.4544242808204473     2.9545368465026103     2.4372429022678359
29     1         41.3634920147553800     0.0000000000000000     0.0000000000000000
30     1         44.3180288612579858     0.0000000000000000     0.8124169004837876
31     1         44.3180288612579858     2.9545368465026103     1.6248299013758116
32     1         41.3634920147553800     2.9545368465026103     2.4372429022678359
33     1         47.2725597486903055     0.0000000000000000     0.0000000000000000
34     1         50.2270965951929114     0.0000000000000000     0.8124169004837876
35     1         50.2270965951929114     2.9545368465026103     1.6248299013758116
36     1         47.2725597486903055     2.9545368465026103     2.4372429022678359
37     1         53.1816334416955243     0.0000000000000000     0.0000000000000000
38     1         56.1361702881981373     0.0000000000000000     0.8124169004837876
39     1         56.1361702881981373     2.9545368465026103     1.6248299013758116
40     1         53.1816334416955243     2.9545368465026103     2.4372429022678359
ITEM: TIMESTEP energy, energy_weight, force_weight, nsims
3        -240579.9958589087182190    1    1   11
ITEM: NUMBER OF ATOMS
40        
ITEM: BOX BOUNDS xy xz yz pp pp pp
    0.0000000000000000     60.0906695924700998      0.0000000000000004
    0.0000000000000000      5.9090760850451396      0.0000000000000002
    0.0000000000000000      3.2496433208911903      0.0000000000000002
ITEM: ATOMS id type x y z
1      1          0.0000000000000000     0.0000000000000000     0.0000000000000000
2      1          2.9545320334556107     0.0000000000000000     0.8124127800087901
3      1          2.9545320334556107     2.9545380425225698     1.6248216604455952
4      1          0.0000000000000003     2.9545380425225698     2.4372305408824002
5      1          5.9090640669112213     0.0000000000000000     0.0000000000000000
6      1          8.8636021094337902     0.0000000000000000     0.8124127800087901
7      1          8.8636021094337902     2.9545380425225698     1.6248216604455952
8      1          5.9090640669112213     2.9545380425225698     2.4372305408824002
9      1         11.8181341428894022     0.0000000000000000     0.0000000000000000
10     1         14.7726661763450124     0.0000000000000000     0.8124127800087901
11     1         14.7726661763450124     2.9545380425225698     1.6248216604455952
12     1         11.8181341428894022     2.9545380425225698     2.4372305408824002
13     1         17.7271982098006227     0.0000000000000000     0.0000000000000000
14     1         20.6817362523231942     0.0000000000000000     0.8124127800087901
15     1         20.6817362523231942     2.9545380425225698     1.6248216604455952
16     1         17.7271982098006227     2.9545380425225698     2.4372305408824002
17     1         23.6362682857788045     0.0000000000000000     0.0000000000000000
18     1         26.5908003192344147     0.0000000000000000     0.8124127800087901
19     1         26.5908003192344147     2.9545380425225698     1.6248216604455952
20     1         23.6362682857788045     2.9545380425225698     2.4372305408824002
21     1         29.5453323526900249     0.0000000000000000     0.0000000000000000
22     1         32.4998703952125894     0.0000000000000000     0.8124127800087901
23     1         32.4998703952125894     2.9545380425225698     1.6248216604455952
24     1         29.5453323526900249     2.9545380425225698     2.4372305408824002
25     1         35.4544024286682031     0.0000000000000000     0.0000000000000000
26     1         38.4089344621238098     0.0000000000000000     0.8124127800087901
27     1         38.4089344621238098     2.9545380425225698     1.6248216604455952
28     1         35.4544024286682031     2.9545380425225698     2.4372305408824002
29     1         41.3634664955794236     0.0000000000000000     0.0000000000000000
30     1         44.3180045381019951     0.0000000000000000     0.8124127800087901
31     1         44.3180045381019951     2.9545380425225698     1.6248216604455952
32     1         41.3634664955794236     2.9545380425225698     2.4372305408824002
33     1         47.2725365715576089     0.0000000000000000     0.0000000000000000
34     1         50.2270686050132156     0.0000000000000000     0.8124127800087901
35     1         50.2270686050132156     2.9545380425225698     1.6248216604455952
36     1         47.2725365715576089     2.9545380425225698     2.4372305408824002
37     1         53.1816006384688293     0.0000000000000000     0.0000000000000000
38     1         56.1361386809913938     0.0000000000000000     0.8124127800087901
39     1         56.1361386809913938     2.9545380425225698     1.6248216604455952
40     1         53.1816006384688293     2.9545380425225698     2.4372305408824002
ITEM: TIMESTEP energy, energy_weight, force_weight, nsims
4        -240579.8005477524129674    1    1   11
ITEM: NUMBER OF ATOMS
40        
ITEM: BOX BOUNDS xy xz yz pp pp pp
    0.0000000000000000     60.5906891750501941      0.0000000000000004
    0.0000000000000000      5.9090463711075953      0.0000000000000002
    0.0000000000000000      3.2496604325254670      0.0000000000000002
ITEM: ATOMS id type x y z
1      1          0.0000000000000000     0.0000000000000000     0.0000000000000000
2      1          2.9545353036916326     0.0000000000000000     0.8124170579276263
3      1          2.9545353036916326     2.9545231855537977     1.6248302162627335
4      1          0.0000000000000003     2.9545231855537977     2.4372433745978408
5      1          5.9090706073832653     0.0000000000000000     0.0000000000000000
6      1          8.8636059110748970     0.0000000000000000     0.8124170579276263
7      1          8.8636059110748970     2.9545231855537977     1.6248302162627335
8      1          5.9090706073832653     2.9545231855537977     2.4372433745978408
9      1         11.8181351556976129     0.0000000000000000     0.0000000000000000
10     1         14.7726704593892446     0.0000000000000000     0.8124170579276263
11     1         14.7726704593892446     2.9545231855537977     1.6248302162627335
12     1         11.8181351556976129     2.9545231855537977     2.4372433745978408
13     1         17.7272057630808781     0.0000000000000000     0.0000000000000000
14     1         20.6817410667725099     0.0000000000000000     0.8124170579276263
15     1         20.6817410667725099     2.9545231855537977     1.6248302162627335
16     1         17.7272057630808781     2.9545231855537977     2.4372433745978408
17     1         23.6362763704641416     0.0000000000000000     0.0000000000000000
18     1         26.5908116741557770     0.0000000000000000     0.8124170579276263
19     1         26.5908116741557770     2.9545231855537977     1.6248302162627335
20     1         23.6362763704641416     2.9545231855537977     2.4372433745978408
21     1         29.5453469778474087     0.0000000000000000     0.0000000000000000
22     1         32.4998762224701210     0.0000000000000000     0.8124170579276263
23     1         32.4998762224701210     2.9545231855537977     1.6248302162627335
24     1         29.5453469778474087     2.9545231855537977     2.4372433745978408
25     1         35.4544115261617563     0.0000000000000000     0.0000000000000000
26     1         38.4089468298533916     0.0000000000000000     0.8124170579276263
27     1         38.4089468298533916     2.9545231855537977     1.6248302162627335
28     1         35.4544115261617563     2.9545231855537977     2.4372433745978408
29     1         41.3634821335450198     0.0000000000000000     0.0000000000000000
30     1         44.3180174372366551     0.0000000000000000     0.8124170579276263
31     1         44.3180174372366551     2.9545231855537977     1.6248302162627335
32     1         41.3634821335450198     2.9545231855537977     2.4372433745978408
33     1         47.2725527409282833     0.0000000000000000     0.0000000000000000
34     1         50.2270880446199186     0.0000000000000000     0.8124170579276263
35     1         50.2270880446199186     2.9545231855537977     1.6248302162627335
36     1         47.2725527409282833     2.9545231855537977     2.4372433745978408
37     1         53.1816172892426309     0.0000000000000000     0.0000000000000000
38     1         56.1361525929342662     0.0000000000000000     0.8124170579276263
39     1         56.1361525929342662     2.9545231855537977     1.6248302162627335
40     1         53.1816172892426309     2.9545231855537977     2.4372433745978408
ITEM: TIMESTEP energy, energy_weight, force_weight, nsims
5        -240579.6667806107143406    1    1   11
ITEM: NUMBER OF ATOMS
40        
ITEM: BOX BOUNDS xy xz yz pp pp pp
    0.0000000000000000     61.5906754224854964      0.0000000000000004
    0.0000000000000000      5.9090709907086811      0.0000000000000002
    0.0000000000000000      3.2496472166411801      0.0000000000000002
ITEM: ATOMS id type x y z
1      1          0.0000000000000000     0.0000000000000000     0.0000000000000000
2      1          2.9545354953543406     0.0000000000000000     0.8124137539486250
3      1          2.9545354953543406     2.9545354953543406     1.6248236083205900
4      1          0.0000000000000003     2.9545354953543406     2.4372334626925549
5      1          5.9090648316411389     0.0000000000000000     0.0000000000000000
6      1          8.8636003269954795     0.0000000000000000     0.8124137539486250
7      1          8.8636003269954795     2.9545354953543406     1.6248236083205900
8      1          5.9090648316411389     2.9545354953543406     2.4372334626925549
9      1         11.8181358223498201     0.0000000000000000     0.0000000000000000
10     1         14.7726713177041606     0.0000000000000000     0.8124137539486250
11     1         14.7726713177041606     2.9545354953543406     1.6248236083205900
12     1         11.8181358223498201     2.9545354953543406     2.4372334626925549
13     1         17.7272006539909590     0.0000000000000000     0.0000000000000000
14     1         20.6817361493453014     0.0000000000000000     0.8124137539486250
15     1         20.6817361493453014     2.9545354953543406     1.6248236083205900
16     1         17.7272006539909590     2.9545354953543406     2.4372334626925549
17     1         23.6362716446996401     0.0000000000000000     0.0000000000000000
18     1         26.5908009809864403     0.0000000000000000     0.8124137539486250
19     1         26.5908009809864403     2.9545354953543406     1.6248236083205900
20     1         23.6362716446996401     2.9545354953543406     2.4372334626925549
21     1         29.5453364763407791     0.0000000000000000     0.0000000000000000
22     1         32.4998719716951214     0.0000000000000000     0.8124137539486250
23     1         32.4998719716951214     2.9545354953543406     1.6248236083205900
24     1         29.5453364763407791     2.9545354953543406     2.4372334626925549
25     1         35.4544074670494638     0.0000000000000000     0.0000000000000000
26     1         38.4089368033362604     0.0000000000000000     0.8124137539486250
27     1         38.4089368033362604     2.9545354953543406     1.6248236083205900
28     1         35.4544074670494638     2.9545354953543406     2.4372334626925549
29     1         41.3634722986906027     0.0000000000000000     0.0000000000000000
30     1         44.3180077940449380     0.0000000000000000     0.8124137539486250
31     1         44.3180077940449380     2.9545354953543406     1.6248236083205900
32     1         41.3634722986906027     2.9545354953543406     2.4372334626925549
33     1         47.2725432893992803     0.0000000000000000     0.0000000000000000
34     1         50.2270726256860769     0.0000000000000000     0.8124137539486250
35     1         50.2270726256860769     2.9545354953543406     1.6248236083205900
36     1         47.2725432893992803     2.9545354953543406     2.4372334626925549
37     1         53.1816081210404192     0.0000000000000000     0.0000000000000000
38     1         56.1361436163947616     0.0000000000000000     0.8124137539486250
39     1         56.1361436163947616     2.9545354953543406     1.6248236083205900
40     1         53.1816081210404192     2.9545354953543406     2.4372334626925549
ITEM: TIMESTEP energy, energy_weight, force_weight, nsims
6        -240579.6500602962623816    1    1   11
ITEM: NUMBER OF ATOMS
40        
ITEM: BOX BOUNDS xy xz yz pp pp pp
    0.0000000000000000     62.0906950050655979      0.0000000000000004
    0.0000000000000000      5.9090472622420833      0.0000000000000002
    0.0000000000000000      3.2496407044801181      0.0000000000000002
ITEM: ATOMS id type x y z
1      1          0.0000000000000000     0.0000000000000000     0.0000000000000000
2      1          2.9545360492600423     0.0000000000000000     0.8124121259044522
3      1          2.9545360492600423     2.9545236311210417     1.6248203522400591
4      1          0.0000000000000003     2.9545236311210417     2.4372285785756658
5      1          5.9090720985200846     0.0000000000000000     0.0000000000000000
6      1          8.8636019387106266     0.0000000000000000     0.8124121259044522
7      1          8.8636019387106266     2.9545236311210417     1.6248203522400591
8      1          5.9090720985200846     2.9545236311210417     2.4372285785756658
9      1         11.8181379879706689     0.0000000000000000     0.0000000000000000
10     1         14.7726740372307113     0.0000000000000000     0.8124121259044522
11     1         14.7726740372307113     2.9545236311210417     1.6248203522400591
12     1         11.8181379879706689     2.9545236311210417     2.4372285785756658
13     1         17.7272100864907536     0.0000000000000000     0.0000000000000000
14     1         20.6817399266812956     0.0000000000000000     0.8124121259044522
15     1         20.6817399266812956     2.9545236311210417     1.6248203522400591
16     1         17.7272100864907536     2.9545236311210417     2.4372285785756658
17     1         23.6362759759413379     0.0000000000000000     0.0000000000000000
18     1         26.5908120252013802     0.0000000000000000     0.8124121259044522
19     1         26.5908120252013802     2.9545236311210417     1.6248203522400591
20     1         23.6362759759413379     2.9545236311210417     2.4372285785756658
21     1         29.5453480744614225     0.0000000000000000     0.0000000000000000
22     1         32.4998841237214648     0.0000000000000000     0.8124121259044522
23     1         32.4998841237214648     2.9545236311210417     1.6248203522400591
24     1         29.5453480744614225     2.9545236311210417     2.4372285785756658
25     1         35.4544139639120033     0.0000000000000000     0.0000000000000000
26     1         38.4089500131720527     0.0000000000000000     0.8124121259044522
27     1         38.4089500131720527     2.9545236311210417     1.6248203522400591
28     1         35.4544139639120033     2.9545236311210417     2.4372285785756658
29     1         41.3634860624320950     0.0000000000000000     0.0000000000000000
30     1         44.3180221116921302     0.0000000000000000     0.8124121259044522
31     1         44.3180221116921302     2.9545236311210417     1.6248203522400591
32     1         41.3634860624320950     2.9545236311210417     2.4372285785756658
33     1         47.2725581609521797     0.0000000000000000     0.0000000000000000
34     1         50.2270880011427181     0.0000000000000000     0.8124121259044522
35     1         50.2270880011427181     2.9545236311210417     1.6248203522400591
36     1         47.2725581609521797     2.9545236311210417     2.4372285785756658
37     1         53.1816240504027604     0.0000000000000000     0.0000000000000000
38     1         56.1361600996628027     0.0000000000000000     0.8124121259044522
39     1         56.1361600996628027     2.9545236311210417     1.6248203522400591
40     1         53.1816240504027604     2.9545236311210417     2.4372285785756658
ITEM: TIMESTEP energy, energy_weight, force_weight, nsims
7        -240579.6427604310447350    1    1   11
ITEM: NUMBER OF ATOMS
40        
ITEM: BOX BOUNDS xy xz yz pp pp pp
    0.0000000000000000     62.5906616699207987      0.0000000000000004
    0.0000000000000000      5.9090591869338835      0.0000000000000002
    0.0000000000000000      3.2496445632406177      0.0000000000000002
ITEM: ATOMS id type x y z
1      1          0.0000000000000000     0.0000000000000000     0.0000000000000000
2      1          2.9545358525331085     0.0000000000000000     0.8124130905968924
3      1          2.9545358525331085     2.9545295934669418     1.6248222816203088
4      1          0.0000000000000003     2.9545295934669418     2.4372314726437252
5      1          5.9090654460000493     0.0000000000000000     0.0000000000000000
6      1          8.8636012985331583     0.0000000000000000     0.8124130905968924
7      1          8.8636012985331583     2.9545295934669418     1.6248222816203088
8      1          5.9090654460000493     2.9545295934669418     2.4372314726437252
9      1         11.8181308920000987     0.0000000000000000     0.0000000000000000
10     1         14.7726667445332076     0.0000000000000000     0.8124130905968924
11     1         14.7726667445332076     2.9545295934669418     1.6248222816203088
12     1         11.8181308920000987     2.9545295934669418     2.4372314726437252
13     1         17.7271963380001480     0.0000000000000000     0.0000000000000000
14     1         20.6817321905332570     0.0000000000000000     0.8124130905968924
15     1         20.6817321905332570     2.9545295934669418     1.6248222816203088
16     1         17.7271963380001480     2.9545295934669418     2.4372314726437252
17     1         23.6362680430663659     0.0000000000000000     0.0000000000000000
18     1         26.5907976365333063     0.0000000000000000     0.8124130905968924
19     1         26.5907976365333063     2.9545295934669418     1.6248222816203088
20     1         23.6362680430663659     2.9545295934669418     2.4372314726437252
21     1         29.5453334890664152     0.0000000000000000     0.0000000000000000
22     1         32.4998630825333521     0.0000000000000000     0.8124130905968924
23     1         32.4998630825333521     2.9545295934669418     1.6248222816203088
24     1         29.5453334890664152     2.9545295934669418     2.4372314726437252
25     1         35.4543989350664646     0.0000000000000000     0.0000000000000000
26     1         38.4089285285334086     0.0000000000000000     0.8124130905968924
27     1         38.4089285285334086     2.9545295934669418     1.6248222816203088
28     1         35.4543989350664646     2.9545295934669418     2.4372314726437252
29     1         41.3634643810665139     0.0000000000000000     0.0000000000000000
30     1         44.3179939745334579     0.0000000000000000     0.8124130905968924
31     1         44.3179939745334579     2.9545295934669418     1.6248222816203088
32     1         41.3634643810665139     2.9545295934669418     2.4372314726437252
33     1         47.2725298270665633     0.0000000000000000     0.0000000000000000
34     1         50.2270656795996757     0.0000000000000000     0.8124130905968924
35     1         50.2270656795996757     2.9545295934669418     1.6248222816203088
36     1         47.2725298270665633     2.9545295934669418     2.4372314726437252
37     1         53.1815952730666126     0.0000000000000000     0.0000000000000000
38     1         56.1361311255997251     0.0000000000000000     0.8124130905968924
39     1         56.1361311255997251     2.9545295934669418     1.6248222816203088
40     1         53.1815952730666126     2.9545295934669418     2.4372314726437252
ITEM: TIMESTEP energy, energy_weight, force_weight, nsims
8        -240579.6364882042398676    1    1   11
ITEM: NUMBER OF ATOMS
40        
ITEM: BOX BOUNDS xy xz yz pp pp pp
    0.0000000000000000     64.0906674999361883      0.0000000000000004
    0.0000000000000000      5.9090954528266177      0.0000000000000002
    0.0000000000000000      3.2496532049167648      0.0000000000000002
ITEM: ATOMS id type x y z
1      1          0.0000000000000000     0.0000000000000000     0.0000000000000000
2      1          2.9545349082798085     0.0000000000000000     0.8124152510211142
3      1          2.9545349082798085     2.9545477264133089     1.6248266024583824
4      1          0.0000000000000003     2.9545477264133089     2.4372379538956506
5      1          5.9090698165596169     0.0000000000000000     0.0000000000000000
6      1          8.8635983157726752     0.0000000000000000     0.8124152510211142
7      1          8.8635983157726752     2.9545477264133089     1.6248266024583824
8      1          5.9090698165596169     2.9545477264133089     2.4372379538956506
9      1         11.8181332240524846     0.0000000000000000     0.0000000000000000
10     1         14.7726681323322904     0.0000000000000000     0.8124152510211142
11     1         14.7726681323322904     2.9545477264133089     1.6248266024583824
12     1         11.8181332240524846     2.9545477264133089     2.4372379538956506
13     1         17.7272030406120997     0.0000000000000000     0.0000000000000000
14     1         20.6817315398251580     0.0000000000000000     0.8124152510211142
15     1         20.6817315398251580     2.9545477264133089     1.6248266024583824
16     1         17.7272030406120997     2.9545477264133089     2.4372379538956506
17     1         23.6362664481049691     0.0000000000000000     0.0000000000000000
18     1         26.5908013563847767     0.0000000000000000     0.8124152510211142
19     1         26.5908013563847767     2.9545477264133089     1.6248266024583824
20     1         23.6362664481049691     2.9545477264133089     2.4372379538956506
21     1         29.5453362646645807     0.0000000000000000     0.0000000000000000
22     1         32.4998647638776390     0.0000000000000000     0.8124152510211142
23     1         32.4998647638776390     2.9545477264133089     1.6248266024583824
24     1         29.5453362646645807     2.9545477264133089     2.4372379538956506
25     1         35.4543996721574501     0.0000000000000000     0.0000000000000000
26     1         38.4089345804372613     0.0000000000000000     0.8124152510211142
27     1         38.4089345804372613     2.9545477264133089     1.6248266024583824
28     1         35.4543996721574501     2.9545477264133089     2.4372379538956506
29     1         41.3634694887170653     0.0000000000000000     0.0000000000000000
30     1         44.3180043969968764     0.0000000000000000     0.8124152510211142
31     1         44.3180043969968764     2.9545477264133089     1.6248266024583824
32     1         41.3634694887170653     2.9545477264133089     2.4372379538956506
33     1         47.2725328962099383     0.0000000000000000     0.0000000000000000
34     1         50.2270678044897423     0.0000000000000000     0.8124152510211142
35     1         50.2270678044897423     2.9545477264133089     1.6248266024583824
36     1         47.2725328962099383     2.9545477264133089     2.4372379538956506
37     1         53.1816027127695534     0.0000000000000000     0.0000000000000000
38     1         56.1361376210493574     0.0000000000000000     0.8124152510211142
39     1         56.1361376210493574     2.9545477264133089     1.6248266024583824
40     1         53.1816027127695534     2.9545477264133089     2.4372379538956506
ITEM: TIMESTEP energy, energy_weight, force_weight, nsims
9        -240579.6359910520259291    1    1   11