ITEM: TIMESTEP energy, energy_weight, force_weight, nsims
1        -240580.5145322010503151    1    1   21
ITEM: NUMBER OF ATOMS
40        
ITEM: BOX BOUNDS xy xz yz pp pp pp
    0.0000000000000000      5.9090577509585014      0.0000000000000004
    0.0000000000000000      5.9090577509585005      0.0000000000000020
    0.0000000000000000     32.4963490133719333      0.0000000000000020
ITEM: ATOMS id type x y z
1      1          0.0000000000000000     0.0000000000000000     0.0000000000000000
2      1          2.9545288754792494     0.0000000000000000     0.8124119749691997
3      1          2.9545288754792494     2.9545288754792494     1.6248174506685968
4      1          0.0000000000000003     2.9545288754792494     2.4372229263679936
5      1          0.0000000000000002     0.0000000000000002     3.2496349013371937
6      1          2.9545288754792498     0.0000000000000002     4.0620468763063933
7      1          2.9545288754792498     2.9545288754792498     4.8744523520057896
8      1          0.0000000000000005     2.9545288754792498     5.6868578277051878
9      1          0.0000000000000004     0.0000000000000004     6.4992698026743874
10     1          2.9545288754792498     0.0000000000000004     7.3116817776435870
11     1          2.9545288754792498     2.9545288754792498     8.1240872533429833
12     1          0.0000000000000007     2.9545288754792498     8.9364927290423815
13     1          0.0000000000000006     0.0000000000000006     9.7489047040115793
14     1          2.9545288754792498     0.0000000000000006    10.5613166789807806
15     1          2.9545288754792502     2.9545288754792502    11.3737221546801752
16     1          0.0000000000000009     2.9545288754792502    12.1861276303795734
17     1          0.0000000000000008     0.0000000000000008    12.9985396053487747
18     1          2.9545288754792502     0.0000000000000008    13.8109515803179725
19     1          2.9545288754792502     2.9545288754792502    14.6233570560173707
20     1          0.0000000000000011     2.9545288754792502    15.4357625317167653
21     1          0.0000000000000010     0.0000000000000010    16.2481745066859666
22     1          2.9545288754792502     0.0000000000000010    17.0605864816551644
23     1          2.9545288754792502     2.9545288754792502    17.8729919573545644
24     1          0.0000000000000013     2.9545288754792507    18.6853974330539607
25     1          0.0000000000000012     0.0000000000000012    19.4978094080231585
26     1          2.9545288754792507     0.0000000000000012    20.3102213829923564
27     1          2.9545288754792507     2.9545288754792507    21.1226268586917563
28     1          0.0000000000000015     2.9545288754792507    21.9350323343911526
29     1          0.0000000000000014     0.0000000000000014    22.7474443093603504
30     1          2.9545288754792507     0.0000000000000014    23.5598562843295554
31     1          2.9545288754792507     2.9545288754792507    24.3722617600289482
32     1          0.0000000000000017     2.9545288754792507    25.1846672357283445
33     1          0.0000000000000016     0.0000000000000016    25.9970792106975495
34     1          2.9545288754792511     0.0000000000000016    26.8094911856667473
35     1          2.9545288754792511     2.9545288754792511    27.6218966613661436
36     1          0.0000000000000019     2.9545288754792511    28.4343021370655435
37     1          0.0000000000000018     0.0000000000000018    29.2467141120347414
38     1          2.9545288754792511     0.0000000000000018    30.0591260870039392
39     1          2.9545288754792511     2.9545288754792511    30.8715315627033355
40     1          0.0000000000000021     2.9545288754792511    31.6839370384027355
ITEM: TIMESTEP energy, energy_weight, force_weight, nsims
2        -240580.1912365968746599    1    1   21
ITEM: NUMBER OF ATOMS
40        
ITEM: BOX BOUNDS xy xz yz pp pp pp
    0.0000000000000000      5.9090577509585014      0.0000000000000004
    0.0000000000000000      5.9090577509585005      0.0000000000000020
    0.0000000000000000     32.9963498440270371      0.0000000000000020
ITEM: ATOMS id type x y z
1      1          0.0000000000000000     0.0000000000000000     0.0000000000000000
2      1          2.9545288754792494     0.0000000000000000     0.8124097287797585
3      1          2.9545288754792494     2.9545288754792494     1.6248161579245326
4      1          0.0000000000000003     2.9545288754792494     2.4372258867042911
5      1          0.0000000000000002     0.0000000000000002     3.2496356154840496
6      1          2.9545288754792498     0.0000000000000002     4.0620453442638080
7      1          2.9545288754792498     2.9545288754792498     4.8744517734085822
8      1          0.0000000000000005     2.9545288754792498     5.6868582025533563
9      1          0.0000000000000004     0.0000000000000004     6.4992712309680991
10     1          2.9545288754792498     0.0000000000000004     7.3116809597478571
11     1          2.9545288754792498     2.9545288754792498     8.1240873888926313
12     1          0.0000000000000007     2.9545288754792498     8.9364938180374054
13     1          0.0000000000000006     0.0000000000000006     9.7489068464521491
14     1          2.9545288754792498     0.0000000000000006    10.5613165752319080
15     1          2.9545288754792502     2.9545288754792502    11.3737230043766822
16     1          0.0000000000000009     2.9545288754792502    12.1861294335214563
17     1          0.0000000000000008     0.0000000000000008    12.9985391623012134
18     1          2.9545288754792502     0.0000000000000008    13.8109521907159554
19     1          2.9545288754792502     2.9545288754792502    14.6233586198607313
20     1          0.0000000000000011     2.9545288754792502    15.4357650490055054
21     1          0.0000000000000010     0.0000000000000010    16.2481747777852625
22     1          2.9545288754792502     0.0000000000000010    17.0605845065650215
23     1          2.9545288754792502     2.9545288754792502    17.8729942353447804
24     1          0.0000000000000013     2.9545288754792507    18.6854006644895563
25     1          0.0000000000000012     0.0000000000000012    19.4978103932693152
26     1          2.9545288754792507     0.0000000000000012    20.3102201220490706
27     1          2.9545288754792507     2.9545288754792507    21.1226265511938465
28     1          0.0000000000000015     2.9545288754792507    21.9350362799736054
29     1          0.0000000000000014     0.0000000000000014    22.7474460087533643
30     1          2.9545288754792507     0.0000000000000014    23.5598557375331232
31     1          2.9545288754792507     2.9545288754792507    24.3722621666778956
32     1          0.0000000000000017     2.9545288754792507    25.1846685958226715
33     1          0.0000000000000016     0.0000000000000016    25.9970816242374134
34     1          2.9545288754792511     0.0000000000000016    26.8094913530171723
35     1          2.9545288754792511     2.9545288754792511    27.6218977821619447
36     1          0.0000000000000019     2.9545288754792511    28.4343042113067206
37     1          0.0000000000000018     0.0000000000000018    29.2467172397214625
38     1          2.9545288754792511     0.0000000000000018    30.0591269685012215
39     1          2.9545288754792511     2.9545288754792511    30.8715333976459938
40     1          0.0000000000000021     2.9545288754792511    31.6839398267907697
ITEM: TIMESTEP energy, energy_weight, force_weight, nsims
3        -240579.6599614348378964    1    1   21
ITEM: NUMBER OF ATOMS
40        
ITEM: BOX BOUNDS xy xz yz pp pp pp
    0.0000000000000000      5.9090577509585014      0.0000000000000004
    0.0000000000000000      5.9090577509585005      0.0000000000000021
    0.0000000000000000     33.4963506746821409      0.0000000000000021
ITEM: ATOMS id type x y z
1      1          0.0000000000000000     0.0000000000000000     0.0000000000000000
2      1          2.9545288754792494     0.0000000000000000     0.8124104403585383
3      1          2.9545288754792494     2.9545288754792494     1.6248175310820092
4      1          0.0000000000000003     2.9545288754792494     2.4372246218054801
5      1          0.0000000000000002     0.0000000000000002     3.2496350621640184
6      1          2.9545288754792498     0.0000000000000002     4.0620455025225564
7      1          2.9545288754792498     2.9545288754792498     4.8744525932460272
8      1          0.0000000000000005     2.9545288754792498     5.6868596839694980
9      1          0.0000000000000004     0.0000000000000004     6.4992701243280369
10     1          2.9545288754792498     0.0000000000000004     7.3116805646865748
11     1          2.9545288754792498     2.9545288754792498     8.1240876554100439
12     1          0.0000000000000007     2.9545288754792498     8.9364947461335156
13     1          0.0000000000000006     0.0000000000000006     9.7489051864920544
14     1          2.9545288754792498     0.0000000000000006    10.5613156268505932
15     1          2.9545288754792502     2.9545288754792502    11.3737227175740632
16     1          0.0000000000000009     2.9545288754792502    12.1861298082975331
17     1          0.0000000000000008     0.0000000000000008    12.9985402486560737
18     1          2.9545288754792502     0.0000000000000008    13.8109506890146108
19     1          2.9545288754792502     2.9545288754792502    14.6233577797380807
20     1          0.0000000000000011     2.9545288754792502    15.4357648704615507
21     1          0.0000000000000010     0.0000000000000010    16.2481753108200877
22     1          2.9545288754792502     0.0000000000000010    17.0605857511786283
23     1          2.9545288754792502     2.9545288754792502    17.8729928419021000
24     1          0.0000000000000013     2.9545288754792507    18.6853999326255682
25     1          0.0000000000000012     0.0000000000000012    19.4978103729841088
26     1          2.9545288754792507     0.0000000000000012    20.3102208133426458
27     1          2.9545288754792507     2.9545288754792507    21.1226279040661140
28     1          0.0000000000000015     2.9545288754792507    21.9350349947895857
29     1          0.0000000000000014     0.0000000000000014    22.7474454351481263
30     1          2.9545288754792507     0.0000000000000014    23.5598558755066669
31     1          2.9545288754792507     2.9545288754792507    24.3722629662301351
32     1          0.0000000000000017     2.9545288754792507    25.1846700569536068
33     1          0.0000000000000016     0.0000000000000016    25.9970804973121474
34     1          2.9545288754792511     0.0000000000000016    26.8094909376706809
35     1          2.9545288754792511     2.9545288754792511    27.6218980283941526
36     1          0.0000000000000019     2.9545288754792511    28.4343051191176208
37     1          0.0000000000000018     0.0000000000000018    29.2467155594761614
38     1          2.9545288754792511     0.0000000000000018    30.0591293494697673
39     1          2.9545288754792511     2.9545288754792511    30.8715330905581737
40     1          0.0000000000000021     2.9545288754792511    31.6839401812816419
ITEM: TIMESTEP energy, energy_weight, force_weight, nsims
4        -240579.1444193578499835    1    1   21
ITEM: NUMBER OF ATOMS
40        
ITEM: BOX BOUNDS xy xz yz pp pp pp
    0.0000000000000000      5.9090577509585014      0.0000000000000004
    0.0000000000000000      5.9090577509585005      0.0000000000000021
    0.0000000000000000     33.9963455962794967      0.0000000000000021
ITEM: ATOMS id type x y z
1      1          0.0000000000000000     0.0000000000000000     0.0000000000000000
2      1          2.9545288754792494     0.0000000000000000     0.8124106707142912
3      1          2.9545288754792494     2.9545288754792494     1.6248179417940227
4      1          0.0000000000000003     2.9545288754792494     2.4372252128737539
5      1          0.0000000000000002     0.0000000000000002     3.2496358835880454
6      1          2.9545288754792498     0.0000000000000002     4.0620465543023361
7      1          2.9545288754792498     2.9545288754792498     4.8744538253820675
8      1          0.0000000000000005     2.9545288754792498     5.6868576968272393
9      1          0.0000000000000004     0.0000000000000004     6.4992683675415313
10     1          2.9545288754792498     0.0000000000000004     7.3116790382558223
11     1          2.9545288754792498     2.9545288754792498     8.1240863093355529
12     1          0.0000000000000007     2.9545288754792498     8.9364935804152843
13     1          0.0000000000000006     0.0000000000000006     9.7489042511295754
14     1          2.9545288754792498     0.0000000000000006    10.5613149218438682
15     1          2.9545288754792502     2.9545288754792502    11.3737221929235996
16     1          0.0000000000000009     2.9545288754792502    12.1861294640033311
17     1          0.0000000000000008     0.0000000000000008    12.9985401347176222
18     1          2.9545288754792502     0.0000000000000008    13.8109508054319132
19     1          2.9545288754792502     2.9545288754792502    14.6233580765116447
20     1          0.0000000000000011     2.9545288754792502    15.4357619479568164
21     1          0.0000000000000010     0.0000000000000010    16.2481726186711057
22     1          2.9545288754792502     0.0000000000000010    17.0605832893853986
23     1          2.9545288754792502     2.9545288754792502    17.8729905604651300
24     1          0.0000000000000013     2.9545288754792507    18.6853978315448614
25     1          0.0000000000000012     0.0000000000000012    19.4978085022591507
26     1          2.9545288754792507     0.0000000000000012    20.3102191729734471
27     1          2.9545288754792507     2.9545288754792507    21.1226264440531786
28     1          0.0000000000000015     2.9545288754792507    21.9350337151329100
29     1          0.0000000000000014     0.0000000000000014    22.7474443858471993
30     1          2.9545288754792507     0.0000000000000014    23.5598550565614921
31     1          2.9545288754792507     2.9545288754792507    24.3722623276412236
32     1          0.0000000000000017     2.9545288754792507    25.1846695987209550
33     1          0.0000000000000016     0.0000000000000016    25.9970802694352443
34     1          2.9545288754792511     0.0000000000000016    26.8094875405149757
35     1          2.9545288754792511     2.9545288754792511    27.6218948115947072
36     1          0.0000000000000019     2.9545288754792511    28.4343020826744386
37     1          0.0000000000000018     0.0000000000000018    29.2467127533887314
38     1          2.9545288754792511     0.0000000000000018    30.0591234241030207
39     1          2.9545288754792511     2.9545288754792511    30.8715306951827522
40     1          0.0000000000000021     2.9545288754792511    31.6839379662624836
ITEM: TIMESTEP energy, energy_weight, force_weight, nsims
5        -240578.7535499657387845    1    1   21
ITEM: NUMBER OF ATOMS
40        
ITEM: BOX BOUNDS xy xz yz pp pp pp
    0.0000000000000000      5.9090577509585014      0.0000000000000004
    0.0000000000000000      5.9090577509585005      0.0000000000000021
    0.0000000000000000     34.4963464269346005      0.0000000000000021
ITEM: ATOMS id type x y z
1      1          0.0000000000000000     0.0000000000000000     0.0000000000000000
2      1          2.9545288754792494     0.0000000000000000     0.8124096561621661
3      1          2.9545288754792494     2.9545288754792494     1.6248158626896894
4      1          0.0000000000000003     2.9545288754792494     2.4372255188518555
5      1          0.0000000000000002     0.0000000000000002     3.2496351750140215
6      1          2.9545288754792498     0.0000000000000002     4.0620448311761868
7      1          2.9545288754792498     2.9545288754792498     4.8744510377037109
8      1          0.0000000000000005     2.9545288754792498     5.6868606938658770
9      1          0.0000000000000004     0.0000000000000004     6.4992703500280431
10     1          2.9545288754792498     0.0000000000000004     7.3116800061902092
11     1          2.9545288754792498     2.9545288754792498     8.1240862127177316
12     1          0.0000000000000007     2.9545288754792498     8.9364958688798986
13     1          0.0000000000000006     0.0000000000000006     9.7489055250420638
14     1          2.9545288754792498     0.0000000000000006    10.5613151812042307
15     1          2.9545288754792502     2.9545288754792502    11.3737213877317540
16     1          0.0000000000000009     2.9545288754792502    12.1861310438939192
17     1          0.0000000000000008     0.0000000000000008    12.9985407000560862
18     1          2.9545288754792502     0.0000000000000008    13.8109503562182514
19     1          2.9545288754792502     2.9545288754792502    14.6233565627457747
20     1          0.0000000000000011     2.9545288754792502    15.4357627692732979
21     1          0.0000000000000010     0.0000000000000010    16.2481758750701069
22     1          2.9545288754792502     0.0000000000000010    17.0605855312322738
23     1          2.9545288754792502     2.9545288754792502    17.8729917377597971
24     1          0.0000000000000013     2.9545288754792507    18.6853979442873168
25     1          0.0000000000000012     0.0000000000000012    19.4978110500841275
26     1          2.9545288754792507     0.0000000000000012    20.3102207062462945
27     1          2.9545288754792507     2.9545288754792507    21.1226269127738178
28     1          0.0000000000000015     2.9545288754792507    21.9350331193013410
29     1          0.0000000000000014     0.0000000000000014    22.7474462250981482
30     1          2.9545288754792507     0.0000000000000014    23.5598558812603152
31     1          2.9545288754792507     2.9545288754792507    24.3722620877878384
32     1          0.0000000000000017     2.9545288754792507    25.1846682943153617
33     1          0.0000000000000016     0.0000000000000016    25.9970814001121724
34     1          2.9545288754792511     0.0000000000000016    26.8094910562743358
35     1          2.9545288754792511     2.9545288754792511    27.6218972628018591
36     1          0.0000000000000019     2.9545288754792511    28.4343034693293824
37     1          0.0000000000000018     0.0000000000000018    29.2467165751261895
38     1          2.9545288754792511     0.0000000000000018    30.0591262312883565
39     1          2.9545288754792511     2.9545288754792511    30.8715324378158797
40     1          0.0000000000000021     2.9545288754792511    31.6839386443434066
ITEM: TIMESTEP energy, energy_weight, force_weight, nsims
6        -240578.5035784616775345    1    1   21
ITEM: NUMBER OF ATOMS
40        
ITEM: BOX BOUNDS xy xz yz pp pp pp
    0.0000000000000000      5.9090577509585014      0.0000000000000004
    0.0000000000000000      5.9090577509585005      0.0000000000000021
    0.0000000000000000     34.9963472575897043      0.0000000000000021
ITEM: ATOMS id type x y z
1      1          0.0000000000000000     0.0000000000000000     0.0000000000000000
2      1          2.9545288754792494     0.0000000000000000     0.8124122045071389
3      1          2.9545288754792494     2.9545288754792494     1.6248174097448265
4      1          0.0000000000000003     2.9545288754792494     2.4372261146172396
5      1          0.0000000000000002     0.0000000000000002     3.2496348194896529
6      1          2.9545288754792498     0.0000000000000002     4.0620470239967910
7      1          2.9545288754792498     2.9545288754792498     4.8744522292344792
8      1          0.0000000000000005     2.9545288754792498     5.6868609341068916
9      1          0.0000000000000004     0.0000000000000004     6.4992696389793059
10     1          2.9545288754792498     0.0000000000000004     7.3116818434864443
11     1          2.9545288754792498     2.9545288754792498     8.1240870487241317
12     1          0.0000000000000007     2.9545288754792498     8.9364957535965441
13     1          0.0000000000000006     0.0000000000000006     9.7489044584689584
14     1          2.9545288754792498     0.0000000000000006    10.5613166629760968
15     1          2.9545288754792502     2.9545288754792502    11.3737218682137833
16     1          0.0000000000000009     2.9545288754792502    12.1861305730861975
17     1          0.0000000000000008     0.0000000000000008    12.9985392779586117
18     1          2.9545288754792502     0.0000000000000008    13.8109514824657484
19     1          2.9545288754792502     2.9545288754792502    14.6233566877034367
20     1          0.0000000000000011     2.9545288754792502    15.4357653925758509
21     1          0.0000000000000010     0.0000000000000010    16.2481740974482634
22     1          2.9545288754792502     0.0000000000000010    17.0605863019554000
23     1          2.9545288754792502     2.9545288754792502    17.8729950068278143
24     1          0.0000000000000013     2.9545288754792507    18.6854002120655025
25     1          0.0000000000000012     0.0000000000000012    19.4978124165726392
26     1          2.9545288754792507     0.0000000000000012    20.3102211214450534
27     1          2.9545288754792507     2.9545288754792507    21.1226298263174677
28     1          0.0000000000000015     2.9545288754792507    21.9350350315551523
29     1          0.0000000000000014     0.0000000000000014    22.7474472360622961
30     1          2.9545288754792507     0.0000000000000014    23.5598559409347068
31     1          2.9545288754792507     2.9545288754792507    24.3722646458071175
32     1          0.0000000000000017     2.9545288754792507    25.1846698510448093
33     1          0.0000000000000016     0.0000000000000016    25.9970820555519460
34     1          2.9545288754792511     0.0000000000000016    26.8094907604243602
35     1          2.9545288754792511     2.9545288754792511    27.6218994652967744
36     1          0.0000000000000019     2.9545288754792511    28.4343046705344591
37     1          0.0000000000000018     0.0000000000000018    29.2467168750416029
38     1          2.9545288754792511     0.0000000000000018    30.0591255799140100
39     1          2.9545288754792511     2.9545288754792511    30.8715342847864243
40     1          0.0000000000000021     2.9545288754792511    31.6839394900241160
ITEM: TIMESTEP energy, energy_weight, force_weight, nsims
7        -240578.3572312194737606    1    1   21
ITEM: NUMBER OF ATOMS
40        
ITEM: BOX BOUNDS xy xz yz pp pp pp
    0.0000000000000000      5.9090577509585014      0.0000000000000004
    0.0000000000000000      5.9090577509585005      0.0000000000000022
    0.0000000000000000     35.4963421791870601      0.0000000000000022
ITEM: ATOMS id type x y z
1      1          0.0000000000000000     0.0000000000000000     0.0000000000000000
2      1          2.9545288754792494     0.0000000000000000     0.8124118827234901
3      1          2.9545288754792494     2.9545288754792494     1.6248166661785444
4      1          0.0000000000000003     2.9545288754792494     2.4372249992678161
5      1          0.0000000000000002     0.0000000000000002     3.2496333323570887
6      1          2.9545288754792498     0.0000000000000002     4.0620452150805786
7      1          2.9545288754792498     2.9545288754792498     4.8744535481698508
8      1          0.0000000000000005     2.9545288754792498     5.6868583316249053
9      1          0.0000000000000004     0.0000000000000004     6.4992702143483951
10     1          2.9545288754792498     0.0000000000000004     7.3116785474376673
11     1          2.9545288754792498     2.9545288754792498     8.1240868805269386
12     1          0.0000000000000007     2.9545288754792498     8.9364952136162117
13     1          0.0000000000000006     0.0000000000000006     9.7489035467054830
14     1          2.9545288754792498     0.0000000000000006    10.5613154294289728
15     1          2.9545288754792502     2.9545288754792502    11.3737202128840291
16     1          0.0000000000000009     2.9545288754792502    12.1861285459733004
17     1          0.0000000000000008     0.0000000000000008    12.9985404286967903
18     1          2.9545288754792502     0.0000000000000008    13.8109487617860633
19     1          2.9545288754792502     2.9545288754792502    14.6233570948753346
20     1          0.0000000000000011     2.9545288754792502    15.4357618783303892
21     1          0.0000000000000010     0.0000000000000010    16.2481737610538772
22     1          2.9545288754792502     0.0000000000000010    17.0605856437773689
23     1          2.9545288754792502     2.9545288754792502    17.8729904272324234
24     1          0.0000000000000013     2.9545288754792507    18.6853987603216964
25     1          0.0000000000000012     0.0000000000000012    19.4978070934109660
26     1          2.9545288754792507     0.0000000000000012    20.3102189761344576
27     1          2.9545288754792507     2.9545288754792507    21.1226273092237307
28     1          0.0000000000000015     2.9545288754792507    21.9350320926787852
29     1          0.0000000000000014     0.0000000000000014    22.7474439754022733
30     1          2.9545288754792507     0.0000000000000014    23.5598523084915463
31     1          2.9545288754792507     2.9545288754792507    24.3722606415808194
32     1          0.0000000000000017     2.9545288754792507    25.1846689746700925
33     1          0.0000000000000016     0.0000000000000016    25.9970773077593620
34     1          2.9545288754792511     0.0000000000000016    26.8094891904828536
35     1          2.9545288754792511     2.9545288754792511    27.6218939739379046
36     1          0.0000000000000019     2.9545288754792511    28.4343023070271812
37     1          0.0000000000000018     0.0000000000000018    29.2467141897506693
38     1          2.9545288754792511     0.0000000000000018    30.0591225228399423
39     1          2.9545288754792511     2.9545288754792511    30.8715308559292119
40     1          0.0000000000000021     2.9545288754792511    31.6839356393842664
ITEM: TIMESTEP energy, energy_weight, force_weight, nsims
8        -240578.2798139811493456    1    1   21
ITEM: NUMBER OF ATOMS
40        
ITEM: BOX BOUNDS xy xz yz pp pp pp
    0.0000000000000000      5.9090577509585014      0.0000000000000004
    0.0000000000000000      5.9090577509585005      0.0000000000000022
    0.0000000000000000     35.9963430098421568      0.0000000000000022
ITEM: ATOMS id type x y z
1      1          0.0000000000000000     0.0000000000000000     0.0000000000000000
2      1          2.9545288754792494     0.0000000000000000     0.8124122642920306
3      1          2.9545288754792494     2.9545288754792494     1.6248173293154593
4      1          0.0000000000000003     2.9545288754792494     2.4372259939731888
5      1          0.0000000000000002     0.0000000000000002     3.2496346586309186
6      1          2.9545288754792498     0.0000000000000002     4.0620469229229492
7      1          2.9545288754792498     2.9545288754792498     4.8744519879463777
8      1          0.0000000000000005     2.9545288754792498     5.6868606526041070
9      1          0.0000000000000004     0.0000000000000004     6.4992693172618372
10     1          2.9545288754792498     0.0000000000000004     7.3116815815538674
11     1          2.9545288754792498     2.9545288754792498     8.1240866465772967
12     1          0.0000000000000007     2.9545288754792498     8.9364953112350261
13     1          0.0000000000000006     0.0000000000000006     9.7489039758927554
14     1          2.9545288754792498     0.0000000000000006    10.5613162401847855
15     1          2.9545288754792502     2.9545288754792502    11.3737213052082140
16     1          0.0000000000000009     2.9545288754792502    12.1861299698659451
17     1          0.0000000000000008     0.0000000000000008    12.9985386345236744
18     1          2.9545288754792502     0.0000000000000008    13.8109508988157028
19     1          2.9545288754792502     2.9545288754792502    14.6233559638391331
20     1          0.0000000000000011     2.9545288754792502    15.4357646284968624
21     1          0.0000000000000010     0.0000000000000010    16.2481732931545935
22     1          2.9545288754792502     0.0000000000000010    17.0605855574466219
23     1          2.9545288754792502     2.9545288754792502    17.8729906224700521
24     1          0.0000000000000013     2.9545288754792507    18.6853992871277796
25     1          0.0000000000000012     0.0000000000000012    19.4978079517855107
26     1          2.9545288754792507     0.0000000000000012    20.3102202160775391
27     1          2.9545288754792507     2.9545288754792507    21.1226252811009694
28     1          0.0000000000000015     2.9545288754792507    21.9350339457587005
29     1          0.0000000000000014     0.0000000000000014    22.7474462100507324
30     1          2.9545288754792507     0.0000000000000014    23.5598548747084600
31     1          2.9545288754792507     2.9545288754792507    24.3722635393661875
32     1          0.0000000000000017     2.9545288754792507    25.1846686043896177
33     1          0.0000000000000016     0.0000000000000016    25.9970808686816461
34     1          2.9545288754792511     0.0000000000000016    26.8094895333393808
35     1          2.9545288754792511     2.9545288754792511    27.6218981979971083
36     1          0.0000000000000019     2.9545288754792511    28.4343032630205350
37     1          0.0000000000000018     0.0000000000000018    29.2467155273125670
38     1          2.9545288754792511     0.0000000000000018    30.0591241919702945
39     1          2.9545288754792511     2.9545288754792511    30.8715328566280292
40     1          0.0000000000000021     2.9545288754792511    31.6839379216514523
ITEM: TIMESTEP energy, energy_weight, force_weight, nsims
9        -240578.2418158515356481    1    1   21