ITEM: TIMESTEP energy, energy_weight, force_weight, nsims
1        -12018.4908384616446710    1    1   99
ITEM: NUMBER OF ATOMS
2         
ITEM: BOX BOUNDS xy xz yz pp pp pp
    0.0000000000000000      2.9491577264019004      0.0000000000000002
    0.0000000000000000      2.9491577264019000      0.0000000000000002
    0.0000000000000000      2.9491577264019000      0.0000000000000002
ITEM: ATOMS id type x y z
1      1          0.0000000000000000     0.0000000000000000     0.0000000000000000
2      1          1.4745788632009500     1.4745788632009500     1.4745788632009500
ITEM: TIMESTEP energy, energy_weight, force_weight, nsims
2        -12023.7200798037465574    1    1   99
ITEM: NUMBER OF ATOMS
2         
ITEM: BOX BOUNDS xy xz yz pp pp pp
    0.0000000000000000      3.1245270667204998      0.0000000000000002
    0.0000000000000000      3.1245270667204994      0.0000000000000002
    0.0000000000000000      3.1245270667204994      0.0000000000000002
ITEM: ATOMS id type x y z
1      1          0.0000000000000000     0.0000000000000000     0.0000000000000000
2      1          1.5622635333602497     1.5622635333602497     1.5622635333602497
ITEM: TIMESTEP energy, energy_weight, force_weight, nsims
3        -12024.1259176406201732    1    1   99
ITEM: NUMBER OF ATOMS
2         
ITEM: BOX BOUNDS xy xz yz pp pp pp
    0.0000000000000000      3.1434186945098004      0.0000000000000002
    0.0000000000000000      3.1434186945097999      0.0000000000000002
    0.0000000000000000      3.1434186945097999      0.0000000000000002
ITEM: ATOMS id type x y z
1      1          0.0000000000000000     0.0000000000000000     0.0000000000000000
2      1          1.5717093472549000     1.5717093472549000     1.5717093472549000
ITEM: TIMESTEP energy, energy_weight, force_weight, nsims
4        -12024.5047721128594276    1    1   99
ITEM: NUMBER OF ATOMS
2         
ITEM: BOX BOUNDS xy xz yz pp pp pp
    0.0000000000000000      3.1621515691244002      0.0000000000000002
    0.0000000000000000      3.1621515691243998      0.0000000000000002
    0.0000000000000000      3.1621515691243998      0.0000000000000002
ITEM: ATOMS id type x y z
1      1          0.0000000000000000     0.0000000000000000     0.0000000000000000
2      1          1.5810757845621999     1.5810757845621999     1.5810757845621999
ITEM: TIMESTEP energy, energy_weight, force_weight, nsims
5        -12024.8583998521444300    1    1   99
ITEM: NUMBER OF ATOMS
2         
ITEM: BOX BOUNDS xy xz yz pp pp pp
    0.0000000000000000      3.1808315260141002      0.0000000000000002
    0.0000000000000000      3.1808315260140998      0.0000000000000002
    0.0000000000000000      3.1808315260140998      0.0000000000000002
ITEM: ATOMS id type x y z
1      1          0.0000000000000000     0.0000000000000000     0.0000000000000000
2      1          1.5904157630070499     1.5904157630070499     1.5904157630070499
ITEM: TIMESTEP energy, energy_weight, force_weight, nsims
6        -12025.1883682348925504    1    1   99
ITEM: NUMBER OF ATOMS
2         
ITEM: BOX BOUNDS xy xz yz pp pp pp
    0.0000000000000000      3.1993527297291000      0.0000000000000002
    0.0000000000000000      3.1993527297290996      0.0000000000000002
    0.0000000000000000      3.1993527297290996      0.0000000000000002
ITEM: ATOMS id type x y z
1      1          0.0000000000000000     0.0000000000000000     0.0000000000000000
2      1          1.5996763648645498     1.5996763648645498     1.5996763648645498
ITEM: TIMESTEP energy, energy_weight, force_weight, nsims
7        -12025.4961846363912628    1    1   99
ITEM: NUMBER OF ATOMS
2         
ITEM: BOX BOUNDS xy xz yz pp pp pp
    0.0000000000000000      3.2178210157192000      0.0000000000000002
    0.0000000000000000      3.2178210157191995      0.0000000000000002
    0.0000000000000000      3.2178210157191995      0.0000000000000002
ITEM: ATOMS id type x y z
1      1          0.0000000000000000     0.0000000000000000     0.0000000000000000
2      1          1.6089105078595998     1.6089105078595998     1.6089105078595998
ITEM: TIMESTEP energy, energy_weight, force_weight, nsims
8        -12025.7832349330456054    1    1   99
ITEM: NUMBER OF ATOMS
2         
ITEM: BOX BOUNDS xy xz yz pp pp pp
    0.0000000000000000      3.2361305485346001      0.0000000000000002
    0.0000000000000000      3.2361305485345997      0.0000000000000002
    0.0000000000000000      3.2361305485345997      0.0000000000000002
ITEM: ATOMS id type x y z
1      1          0.0000000000000000     0.0000000000000000     0.0000000000000000
2      1          1.6180652742672998     1.6180652742672998     1.6180652742672998
ITEM: TIMESTEP energy, energy_weight, force_weight, nsims
9        -12026.0507829581511032    1    1   99
ITEM: NUMBER OF ATOMS
2         
ITEM: BOX BOUNDS xy xz yz pp pp pp
    0.0000000000000000      3.2543871636251001      0.0000000000000002
    0.0000000000000000      3.2543871636250996      0.0000000000000002
    0.0000000000000000      3.2543871636250996      0.0000000000000002
ITEM: ATOMS id type x y z
1      1          0.0000000000000000     0.0000000000000000     0.0000000000000000
2      1          1.6271935818125498     1.6271935818125498     1.6271935818125498
ITEM: TIMESTEP energy, energy_weight, force_weight, nsims
10       -12026.3001076473228750    1    1   99
ITEM: NUMBER OF ATOMS
2         
ITEM: BOX BOUNDS xy xz yz pp pp pp
    0.0000000000000000      3.2724850255409001      0.0000000000000002
    0.0000000000000000      3.2724850255408997      0.0000000000000002
    0.0000000000000000      3.2724850255408997      0.0000000000000002
ITEM: ATOMS id type x y z
1      1          0.0000000000000000     0.0000000000000000     0.0000000000000000
2      1          1.6362425127704499     1.6362425127704499     1.6362425127704499
ITEM: TIMESTEP energy, energy_weight, force_weight, nsims
11       -12026.5322354144227575    1    1   99
ITEM: NUMBER OF ATOMS
2         
ITEM: BOX BOUNDS xy xz yz pp pp pp
    0.0000000000000000      3.2905299697318005      0.0000000000000002
    0.0000000000000000      3.2905299697318000      0.0000000000000002
    0.0000000000000000      3.2905299697318000      0.0000000000000002
ITEM: ATOMS id type x y z
1      1          0.0000000000000000     0.0000000000000000     0.0000000000000000
2      1          1.6452649848659000     1.6452649848659000     1.6452649848659000
ITEM: TIMESTEP energy, energy_weight, force_weight, nsims
12       -12019.2439777963736560    1    1   99
ITEM: NUMBER OF ATOMS
2         
ITEM: BOX BOUNDS xy xz yz pp pp pp
    0.0000000000000000      2.9691606264141002      0.0000000000000002
    0.0000000000000000      2.9691606264140997      0.0000000000000002
    0.0000000000000000      2.9691606264140997      0.0000000000000002
ITEM: ATOMS id type x y z
1      1          0.0000000000000000     0.0000000000000000     0.0000000000000000
2      1          1.4845803132070499     1.4845803132070499     1.4845803132070499
ITEM: TIMESTEP energy, energy_weight, force_weight, nsims
13       -12026.7482458715949178    1    1   99
ITEM: NUMBER OF ATOMS
2         
ITEM: BOX BOUNDS xy xz yz pp pp pp
    0.0000000000000000      3.3084690784729003      0.0000000000000002
    0.0000000000000000      3.3084690784728998      0.0000000000000002
    0.0000000000000000      3.3084690784728998      0.0000000000000002
ITEM: ATOMS id type x y z
1      1          0.0000000000000000     0.0000000000000000     0.0000000000000000
2      1          1.6542345392364499     1.6542345392364499     1.6542345392364499
ITEM: TIMESTEP energy, energy_weight, force_weight, nsims
14       -12026.9491057036866550    1    1   99
ITEM: NUMBER OF ATOMS
2         
ITEM: BOX BOUNDS xy xz yz pp pp pp
    0.0000000000000000      3.3263023517642001      0.0000000000000002
    0.0000000000000000      3.3263023517641996      0.0000000000000002
    0.0000000000000000      3.3263023517641996      0.0000000000000002
ITEM: ATOMS id type x y z
1      1          0.0000000000000000     0.0000000000000000     0.0000000000000000
2      1          1.6631511758820998     1.6631511758820998     1.6631511758820998
ITEM: TIMESTEP energy, energy_weight, force_weight, nsims
15       -12027.1357637720793718    1    1   99
ITEM: NUMBER OF ATOMS
2         
ITEM: BOX BOUNDS xy xz yz pp pp pp
    0.0000000000000000      3.3440297896057003      0.0000000000000002
    0.0000000000000000      3.3440297896056999      0.0000000000000002
    0.0000000000000000      3.3440297896056999      0.0000000000000002
ITEM: ATOMS id type x y z
1      1          0.0000000000000000     0.0000000000000000     0.0000000000000000
2      1          1.6720148948028499     1.6720148948028499     1.6720148948028499
ITEM: TIMESTEP energy, energy_weight, force_weight, nsims
16       -12027.3089738324470090    1    1   99
ITEM: NUMBER OF ATOMS
2         
ITEM: BOX BOUNDS xy xz yz pp pp pp
    0.0000000000000000      3.3617043097222998      0.0000000000000002
    0.0000000000000000      3.3617043097222994      0.0000000000000002
    0.0000000000000000      3.3617043097222994      0.0000000000000002
ITEM: ATOMS id type x y z
1      1          0.0000000000000000     0.0000000000000000     0.0000000000000000
2      1          1.6808521548611497     1.6808521548611497     1.6808521548611497
ITEM: TIMESTEP energy, energy_weight, force_weight, nsims
17       -12027.4696429766790970    1    1   99
ITEM: NUMBER OF ATOMS
2         
ITEM: BOX BOUNDS xy xz yz pp pp pp
    0.0000000000000000      3.3792729943891002      0.0000000000000002
    0.0000000000000000      3.3792729943890998      0.0000000000000002
    0.0000000000000000      3.3792729943890998      0.0000000000000002
ITEM: ATOMS id type x y z
1      1          0.0000000000000000     0.0000000000000000     0.0000000000000000
2      1          1.6896364971945499     1.6896364971945499     1.6896364971945499
ITEM: TIMESTEP energy, energy_weight, force_weight, nsims
18       -12027.6184728506250394    1    1   99
ITEM: NUMBER OF ATOMS
2         
ITEM: BOX BOUNDS xy xz yz pp pp pp
    0.0000000000000000      3.3967358436061001      0.0000000000000002
    0.0000000000000000      3.3967358436060997      0.0000000000000002
    0.0000000000000000      3.3967358436060997      0.0000000000000002
ITEM: ATOMS id type x y z
1      1          0.0000000000000000     0.0000000000000000     0.0000000000000000
2      1          1.6983679218030499     1.6983679218030499     1.6983679218030499
ITEM: TIMESTEP energy, energy_weight, force_weight, nsims
19       -12027.7562717688069824    1    1   99
ITEM: NUMBER OF ATOMS
2         
ITEM: BOX BOUNDS xy xz yz pp pp pp
    0.0000000000000000      3.4140928573733000      0.0000000000000002
    0.0000000000000000      3.4140928573732996      0.0000000000000002
    0.0000000000000000      3.4140928573732996      0.0000000000000002
ITEM: ATOMS id type x y z
1      1          0.0000000000000000     0.0000000000000000     0.0000000000000000
2      1          1.7070464286866498     1.7070464286866498     1.7070464286866498
ITEM: TIMESTEP energy, energy_weight, force_weight, nsims
20       -12027.8836658654508938    1    1   99
ITEM: NUMBER OF ATOMS
2         
ITEM: BOX BOUNDS xy xz yz pp pp pp
    0.0000000000000000      3.4313969534156001      0.0000000000000002
    0.0000000000000000      3.4313969534155997      0.0000000000000002
    0.0000000000000000      3.4313969534155997      0.0000000000000002
ITEM: ATOMS id type x y z
1      1          0.0000000000000000     0.0000000000000000     0.0000000000000000
2      1          1.7156984767077998     1.7156984767077998     1.7156984767077998
ITEM: TIMESTEP energy, energy_weight, force_weight, nsims
21       -12028.0012665806279983    1    1   99
ITEM: NUMBER OF ATOMS
2         
ITEM: BOX BOUNDS xy xz yz pp pp pp
    0.0000000000000000      3.4485952140081002      0.0000000000000002
    0.0000000000000000      3.4485952140080998      0.0000000000000002
    0.0000000000000000      3.4485952140080998      0.0000000000000002
ITEM: ATOMS id type x y z
1      1          0.0000000000000000     0.0000000000000000     0.0000000000000000
2      1          1.7242976070040499     1.7242976070040499     1.7242976070040499
ITEM: TIMESTEP energy, energy_weight, force_weight, nsims
22       -12028.1095484810830385    1    1   99
ITEM: NUMBER OF ATOMS
2         
ITEM: BOX BOUNDS xy xz yz pp pp pp
    0.0000000000000000      3.4656876391508002      0.0000000000000002
    0.0000000000000000      3.4656876391507998      0.0000000000000002
    0.0000000000000000      3.4656876391507998      0.0000000000000002
ITEM: ATOMS id type x y z
1      1          0.0000000000000000     0.0000000000000000     0.0000000000000000
2      1          1.7328438195753999     1.7328438195753999     1.7328438195753999
ITEM: TIMESTEP energy, energy_weight, force_weight, nsims
23       -12019.9468619002127525    1    1   99
ITEM: NUMBER OF ATOMS
2         
ITEM: BOX BOUNDS xy xz yz pp pp pp
    0.0000000000000000      2.9890047732516001      0.0000000000000002
    0.0000000000000000      2.9890047732515996      0.0000000000000002
    0.0000000000000000      2.9890047732515996      0.0000000000000002
ITEM: ATOMS id type x y z
1      1          0.0000000000000000     0.0000000000000000     0.0000000000000000
2      1          1.4945023866257998     1.4945023866257998     1.4945023866257998
ITEM: TIMESTEP energy, energy_weight, force_weight, nsims
24       -12028.2091453202356206    1    1   99
ITEM: NUMBER OF ATOMS
2         
ITEM: BOX BOUNDS xy xz yz pp pp pp
    0.0000000000000000      3.4827271465686005      0.0000000000000002
    0.0000000000000000      3.4827271465686001      0.0000000000000002
    0.0000000000000000      3.4827271465686001      0.0000000000000002
ITEM: ATOMS id type x y z
1      1          0.0000000000000000     0.0000000000000000     0.0000000000000000
2      1          1.7413635732843000     1.7413635732843000     1.7413635732843000
ITEM: TIMESTEP energy, energy_weight, force_weight, nsims
25       -12028.3004694867940998    1    1   99
ITEM: NUMBER OF ATOMS
2         
ITEM: BOX BOUNDS xy xz yz pp pp pp
    0.0000000000000000      3.4996608185366003      0.0000000000000002
    0.0000000000000000      3.4996608185365998      0.0000000000000002
    0.0000000000000000      3.4996608185365998      0.0000000000000002
ITEM: ATOMS id type x y z
1      1          0.0000000000000000     0.0000000000000000     0.0000000000000000
2      1          1.7498304092682999     1.7498304092682999     1.7498304092682999
ITEM: TIMESTEP energy, energy_weight, force_weight, nsims
26       -12028.3841079305711901    1    1   99
ITEM: NUMBER OF ATOMS
2         
ITEM: BOX BOUNDS xy xz yz pp pp pp
    0.0000000000000000      3.5165415727797003      0.0000000000000002
    0.0000000000000000      3.5165415727796998      0.0000000000000002
    0.0000000000000000      3.5165415727796998      0.0000000000000002
ITEM: ATOMS id type x y z
1      1          0.0000000000000000     0.0000000000000000     0.0000000000000000
2      1          1.7582707863898499     1.7582707863898499     1.7582707863898499
ITEM: TIMESTEP energy, energy_weight, force_weight, nsims
27       -12028.4604329034664261    1    1   99
ITEM: NUMBER OF ATOMS
2         
ITEM: BOX BOUNDS xy xz yz pp pp pp
    0.0000000000000000      3.5333164915729998      0.0000000000000002
    0.0000000000000000      3.5333164915729993      0.0000000000000002
    0.0000000000000000      3.5333164915729993      0.0000000000000002
ITEM: ATOMS id type x y z
1      1          0.0000000000000000     0.0000000000000000     0.0000000000000000
2      1          1.7666582457864997     1.7666582457864997     1.7666582457864997
ITEM: TIMESTEP energy, energy_weight, force_weight, nsims
28       -12028.5299638710348518    1    1   99
ITEM: NUMBER OF ATOMS
2         
ITEM: BOX BOUNDS xy xz yz pp pp pp
    0.0000000000000000      3.5500384926413999      0.0000000000000002
    0.0000000000000000      3.5500384926413995      0.0000000000000002
    0.0000000000000000      3.5500384926413995      0.0000000000000002
ITEM: ATOMS id type x y z
1      1          0.0000000000000000     0.0000000000000000     0.0000000000000000
2      1          1.7750192463206997     1.7750192463206997     1.7750192463206997
ITEM: TIMESTEP energy, energy_weight, force_weight, nsims
29       -12028.5930778471647500    1    1   99
ITEM: NUMBER OF ATOMS
2         
ITEM: BOX BOUNDS xy xz yz pp pp pp
    0.0000000000000000      3.5666546582600005      0.0000000000000002
    0.0000000000000000      3.5666546582600001      0.0000000000000002
    0.0000000000000000      3.5666546582600001      0.0000000000000002
ITEM: ATOMS id type x y z
1      1          0.0000000000000000     0.0000000000000000     0.0000000000000000
2      1          1.7833273291300000     1.7833273291300000     1.7833273291300000
ITEM: TIMESTEP energy, energy_weight, force_weight, nsims
30       -12028.6501541587222164    1    1   99
ITEM: NUMBER OF ATOMS
2         
ITEM: BOX BOUNDS xy xz yz pp pp pp
    0.0000000000000000      3.5832179061537004      0.0000000000000002
    0.0000000000000000      3.5832179061536999      0.0000000000000002
    0.0000000000000000      3.5832179061536999      0.0000000000000002
ITEM: ATOMS id type x y z
1      1          0.0000000000000000     0.0000000000000000     0.0000000000000000
2      1          1.7916089530768500     1.7916089530768500     1.7916089530768500
ITEM: TIMESTEP energy, energy_weight, force_weight, nsims
31       -12028.7015539009335043    1    1   99
ITEM: NUMBER OF ATOMS
2         
ITEM: BOX BOUNDS xy xz yz pp pp pp
    0.0000000000000000      3.5996753185975998      0.0000000000000002
    0.0000000000000000      3.5996753185975994      0.0000000000000002
    0.0000000000000000      3.5996753185975994      0.0000000000000002
ITEM: ATOMS id type x y z
1      1          0.0000000000000000     0.0000000000000000     0.0000000000000000
2      1          1.7998376592987997     1.7998376592987997     1.7998376592987997
ITEM: TIMESTEP energy, energy_weight, force_weight, nsims
32       -12028.7476753125793039    1    1   99
ITEM: NUMBER OF ATOMS
2         
ITEM: BOX BOUNDS xy xz yz pp pp pp
    0.0000000000000000      3.6160798133166003      0.0000000000000002
    0.0000000000000000      3.6160798133165999      0.0000000000000002
    0.0000000000000000      3.6160798133165999      0.0000000000000002
ITEM: ATOMS id type x y z
1      1          0.0000000000000000     0.0000000000000000     0.0000000000000000
2      1          1.8080399066582999     1.8080399066582999     1.8080399066582999
ITEM: TIMESTEP energy, energy_weight, force_weight, nsims
33       -12028.7887359487722279    1    1   99
ITEM: NUMBER OF ATOMS
2         
ITEM: BOX BOUNDS xy xz yz pp pp pp
    0.0000000000000000      3.6324313903107002      0.0000000000000002
    0.0000000000000000      3.6324313903107002      0.0000000000000002
    0.0000000000000000      3.6324313903106997      0.0000000000000002
ITEM: ATOMS id type x y z
1      1          0.0000000000000000     0.0000000000000000     0.0000000000000000
2      1          1.8162156951553503     1.8162156951553501     1.8162156951553499
ITEM: TIMESTEP energy, energy_weight, force_weight, nsims
34       -12020.6029554641754657    1    1   99
ITEM: NUMBER OF ATOMS
2         
ITEM: BOX BOUNDS xy xz yz pp pp pp
    0.0000000000000000      3.0087430846393000      0.0000000000000002
    0.0000000000000000      3.0087430846392995      0.0000000000000002
    0.0000000000000000      3.0087430846392995      0.0000000000000002
ITEM: ATOMS id type x y z
1      1          0.0000000000000000     0.0000000000000000     0.0000000000000000
2      1          1.5043715423196498     1.5043715423196498     1.5043715423196498
ITEM: TIMESTEP energy, energy_weight, force_weight, nsims
35       -12028.8251109186076064    1    1   99
ITEM: NUMBER OF ATOMS
2         
ITEM: BOX BOUNDS xy xz yz pp pp pp
    0.0000000000000000      3.6486771318550000      0.0000000000000002
    0.0000000000000000      3.6486771318550000      0.0000000000000002
    0.0000000000000000      3.6486771318549995      0.0000000000000002
ITEM: ATOMS id type x y z
1      1          0.0000000000000000     0.0000000000000000     0.0000000000000000
2      1          1.8243385659275002     1.8243385659275000     1.8243385659274998
ITEM: TIMESTEP energy, energy_weight, force_weight, nsims
36       -12028.8569962801975635    1    1   99
ITEM: NUMBER OF ATOMS
2         
ITEM: BOX BOUNDS xy xz yz pp pp pp
    0.0000000000000000      3.6648170379495002      0.0000000000000002
    0.0000000000000000      3.6648170379495002      0.0000000000000002
    0.0000000000000000      3.6648170379494998      0.0000000000000002
ITEM: ATOMS id type x y z
1      1          0.0000000000000000     0.0000000000000000     0.0000000000000000
2      1          1.8324085189747503     1.8324085189747501     1.8324085189747499
ITEM: TIMESTEP energy, energy_weight, force_weight, nsims
37       -12028.8847222438289464    1    1   99
ITEM: NUMBER OF ATOMS
2         
ITEM: BOX BOUNDS xy xz yz pp pp pp
    0.0000000000000000      3.6809569440440004      0.0000000000000002
    0.0000000000000000      3.6809569440440004      0.0000000000000002
    0.0000000000000000      3.6809569440440000      0.0000000000000002
ITEM: ATOMS id type x y z
1      1          0.0000000000000000     0.0000000000000000     0.0000000000000000
2      1          1.8404784720220004     1.8404784720220002     1.8404784720220000
ITEM: TIMESTEP energy, energy_weight, force_weight, nsims
38       -12028.9084496288560331    1    1   99
ITEM: NUMBER OF ATOMS
2         
ITEM: BOX BOUNDS xy xz yz pp pp pp
    0.0000000000000000      3.6969910146887002      0.0000000000000002
    0.0000000000000000      3.6969910146887002      0.0000000000000002
    0.0000000000000000      3.6969910146886997      0.0000000000000002
ITEM: ATOMS id type x y z
1      1          0.0000000000000000     0.0000000000000000     0.0000000000000000
2      1          1.8484955073443503     1.8484955073443501     1.8484955073443499
ITEM: TIMESTEP energy, energy_weight, force_weight, nsims
39       -12028.9284385762275633    1    1   99
ITEM: NUMBER OF ATOMS
2         
ITEM: BOX BOUNDS xy xz yz pp pp pp
    0.0000000000000000      3.7129721676085001      0.0000000000000002
    0.0000000000000000      3.7129721676085001      0.0000000000000002
    0.0000000000000000      3.7129721676084997      0.0000000000000002
ITEM: ATOMS id type x y z
1      1          0.0000000000000000     0.0000000000000000     0.0000000000000000
2      1          1.8564860838042503     1.8564860838042501     1.8564860838042498
ITEM: TIMESTEP energy, energy_weight, force_weight, nsims
40       -12028.9448595653375378    1    1   99
ITEM: NUMBER OF ATOMS
2         
ITEM: BOX BOUNDS xy xz yz pp pp pp
    0.0000000000000000      3.7288474850785001      0.0000000000000002
    0.0000000000000000      3.7288474850785001      0.0000000000000002
    0.0000000000000000      3.7288474850784996      0.0000000000000002
ITEM: ATOMS id type x y z
1      1          0.0000000000000000     0.0000000000000000     0.0000000000000000
2      1          1.8644237425392503     1.8644237425392500     1.8644237425392498
ITEM: TIMESTEP energy, energy_weight, force_weight, nsims
41       -12028.9579445733397733    1    1   99
ITEM: NUMBER OF ATOMS
2         
ITEM: BOX BOUNDS xy xz yz pp pp pp
    0.0000000000000000      3.7446698848235997      0.0000000000000002
    0.0000000000000000      3.7446698848235997      0.0000000000000002
    0.0000000000000000      3.7446698848235993      0.0000000000000002
ITEM: ATOMS id type x y z
1      1          0.0000000000000000     0.0000000000000000     0.0000000000000000
2      1          1.8723349424118001     1.8723349424117999     1.8723349424117997
ITEM: TIMESTEP energy, energy_weight, force_weight, nsims
42       -12028.9678433989665791    1    1   99
ITEM: NUMBER OF ATOMS
2         
ITEM: BOX BOUNDS xy xz yz pp pp pp
    0.0000000000000000      3.7604393668438005      0.0000000000000002
    0.0000000000000000      3.7604393668438005      0.0000000000000002
    0.0000000000000000      3.7604393668438001      0.0000000000000002
ITEM: ATOMS id type x y z
1      1          0.0000000000000000     0.0000000000000000     0.0000000000000000
2      1          1.8802196834219005     1.8802196834219003     1.8802196834219000
ITEM: TIMESTEP energy, energy_weight, force_weight, nsims
43       -12028.9747476104494126    1    1   99
ITEM: NUMBER OF ATOMS
2         
ITEM: BOX BOUNDS xy xz yz pp pp pp
    0.0000000000000000      3.7761559311391002      0.0000000000000002
    0.0000000000000000      3.7761559311391002      0.0000000000000002
    0.0000000000000000      3.7761559311390998      0.0000000000000002
ITEM: ATOMS id type x y z
1      1          0.0000000000000000     0.0000000000000000     0.0000000000000000
2      1          1.8880779655695503     1.8880779655695501     1.8880779655695499
ITEM: TIMESTEP energy, energy_weight, force_weight, nsims
44       -12028.9788282314129901    1    1   99
ITEM: NUMBER OF ATOMS
2         
ITEM: BOX BOUNDS xy xz yz pp pp pp
    0.0000000000000000      3.7918195777095001      0.0000000000000002
    0.0000000000000000      3.7918195777095001      0.0000000000000002
    0.0000000000000000      3.7918195777094996      0.0000000000000002
ITEM: ATOMS id type x y z
1      1          0.0000000000000000     0.0000000000000000     0.0000000000000000
2      1          1.8959097888547503     1.8959097888547500     1.8959097888547498
ITEM: TIMESTEP energy, energy_weight, force_weight, nsims
45       -12021.2154309288798686    1    1   99
ITEM: NUMBER OF ATOMS
2         
ITEM: BOX BOUNDS xy xz yz pp pp pp
    0.0000000000000000      3.0283755605772003      0.0000000000000002
    0.0000000000000000      3.0283755605771998      0.0000000000000002
    0.0000000000000000      3.0283755605771998      0.0000000000000002
ITEM: ATOMS id type x y z
1      1          0.0000000000000000     0.0000000000000000     0.0000000000000000
2      1          1.5141877802885999     1.5141877802885999     1.5141877802885999
ITEM: TIMESTEP energy, energy_weight, force_weight, nsims
46       -12028.9802297543701570    1    1   99
ITEM: NUMBER OF ATOMS
2         
ITEM: BOX BOUNDS xy xz yz pp pp pp
    0.0000000000000000      3.8073773888300999      0.0000000000000002
    0.0000000000000000      3.8073773888300999      0.0000000000000002
    0.0000000000000000      3.8073773888300995      0.0000000000000002
ITEM: ATOMS id type x y z
1      1          0.0000000000000000     0.0000000000000000     0.0000000000000000
2      1          1.9036886944150502     1.9036886944150500     1.9036886944150497
ITEM: TIMESTEP energy, energy_weight, force_weight, nsims
47       -12028.9791185770100128    1    1   99
ITEM: NUMBER OF ATOMS
2         
ITEM: BOX BOUNDS xy xz yz pp pp pp
    0.0000000000000000      3.8228822822258000      0.0000000000000002
    0.0000000000000000      3.8228822822258000      0.0000000000000002
    0.0000000000000000      3.8228822822257995      0.0000000000000002
ITEM: ATOMS id type x y z
1      1          0.0000000000000000     0.0000000000000000     0.0000000000000000
2      1          1.9114411411129002     1.9114411411129000     1.9114411411128998
ITEM: TIMESTEP energy, energy_weight, force_weight, nsims
48       -12028.9756370149316353    1    1   99
ITEM: NUMBER OF ATOMS
2         
ITEM: BOX BOUNDS xy xz yz pp pp pp
    0.0000000000000000      3.8383342578966002      0.0000000000000002
    0.0000000000000000      3.8383342578966002      0.0000000000000002
    0.0000000000000000      3.8383342578965998      0.0000000000000002
ITEM: ATOMS id type x y z
1      1          0.0000000000000000     0.0000000000000000     0.0000000000000000
2      1          1.9191671289483003     1.9191671289483001     1.9191671289482999
ITEM: TIMESTEP energy, energy_weight, force_weight, nsims
49       -12028.9698989478310978    1    1   99
ITEM: NUMBER OF ATOMS
2         
ITEM: BOX BOUNDS xy xz yz pp pp pp
    0.0000000000000000      3.8537333158425002      0.0000000000000002
    0.0000000000000000      3.8537333158425002      0.0000000000000002
    0.0000000000000000      3.8537333158424998      0.0000000000000002
ITEM: ATOMS id type x y z
1      1          0.0000000000000000     0.0000000000000000     0.0000000000000000
2      1          1.9268666579212503     1.9268666579212501     1.9268666579212499
ITEM: TIMESTEP energy, energy_weight, force_weight, nsims
50       -12028.9620986650716077    1    1   99
ITEM: NUMBER OF ATOMS
2         
ITEM: BOX BOUNDS xy xz yz pp pp pp
    0.0000000000000000      3.8690265383386002      0.0000000000000002
    0.0000000000000000      3.8690265383386002      0.0000000000000002
    0.0000000000000000      3.8690265383385998      0.0000000000000002
ITEM: ATOMS id type x y z
1      1          0.0000000000000000     0.0000000000000000     0.0000000000000000
2      1          1.9345132691693003     1.9345132691693001     1.9345132691692999
ITEM: TIMESTEP energy, energy_weight, force_weight, nsims
51       -12028.9522831063168269    1    1   99
ITEM: NUMBER OF ATOMS
2         
ITEM: BOX BOUNDS xy xz yz pp pp pp
    0.0000000000000000      3.8842668431098004      0.0000000000000002
    0.0000000000000000      3.8842668431098004      0.0000000000000002
    0.0000000000000000      3.8842668431098000      0.0000000000000002
ITEM: ATOMS id type x y z
1      1          0.0000000000000000     0.0000000000000000     0.0000000000000000
2      1          1.9421334215549004     1.9421334215549002     1.9421334215549000
ITEM: TIMESTEP energy, energy_weight, force_weight, nsims
52       -12028.9406234312446031    1    1   99
ITEM: NUMBER OF ATOMS
2         
ITEM: BOX BOUNDS xy xz yz pp pp pp
    0.0000000000000000      3.8995071478810002      0.0000000000000002
    0.0000000000000000      3.8995071478810002      0.0000000000000002
    0.0000000000000000      3.8995071478809997      0.0000000000000002
ITEM: ATOMS id type x y z