ITEM: TIMESTEP energy, energy_weight, force_weight, nsims
1        -120289.8830375656398246    1    1   21
ITEM: NUMBER OF ATOMS
20        
ITEM: BOX BOUNDS xy xz yz pp pp pp
    0.0000000000000000     40.3006046698178935      0.0000000000000002
    0.0000000000000000      4.0300604669817899      0.0000000000000002
    0.0000000000000000      3.4199093122807471      0.0000000000000002
ITEM: ATOMS id type x y z
1      1          0.0000000000000000     0.0000000000000000     0.0000000000000000
2      1          2.0150302334908949     2.0150302334908949     1.7099546561403736
3      1          4.0300604669817899     0.0000000000000000     0.0000000000000000
4      1          6.0450907004726835     2.0150302334908949     1.7099546561403736
5      1          8.0601209339635798     0.0000000000000000     0.0000000000000000
6      1         10.0751511674544734     2.0150302334908949     1.7099546561403736
7      1         12.0901814009453670     0.0000000000000000     0.0000000000000000
8      1         14.1052116344362624     2.0150302334908949     1.7099546561403736
9      1         16.1202418679271595     0.0000000000000000     0.0000000000000000
10     1         18.1352721014180531     2.0150302334908949     1.7099546561403736
11     1         20.1503023349089467     0.0000000000000000     0.0000000000000000
12     1         22.1653325683998439     2.0150302334908949     1.7099546561403736
13     1         24.1803628018907339     0.0000000000000000     0.0000000000000000
14     1         26.1953930353816311     2.0150302334908949     1.7099546561403736
15     1         28.2104232688725247     0.0000000000000000     0.0000000000000000
16     1         30.2254535023634219     2.0150302334908949     1.7099546561403736
17     1         32.2404837358543190     0.0000000000000000     0.0000000000000000
18     1         34.2555139693452091     2.0150302334908949     1.7099546561403736
19     1         36.2705442028361063     0.0000000000000000     0.0000000000000000
20     1         38.2855744363269963     2.0150302334908949     1.7099546561403736
ITEM: TIMESTEP energy, energy_weight, force_weight, nsims
2        -120289.7789391452242853    1    1   21
ITEM: NUMBER OF ATOMS
20        
ITEM: BOX BOUNDS xy xz yz pp pp pp
    0.0000000000000000     40.8006242523980021      0.0000000000000002
    0.0000000000000000      4.0300816605306125      0.0000000000000002
    0.0000000000000000      3.4199491254602532      0.0000000000000002
ITEM: ATOMS id type x y z
1      1          0.0000000000000000     0.0000000000000000     0.0000000000000000
2      1          2.0150326701404557     2.0150408302653062     1.7099745627301266
3      1          4.0300612602184867     0.0000000000000000     0.0000000000000000
4      1          6.0450939303589424     2.0150408302653062     1.7099745627301266
5      1          8.0601266004993981     0.0000000000000000     0.0000000000000000
6      1         10.0751551905774281     2.0150408302653062     1.7099745627301266
7      1         12.0901878607178848     0.0000000000000000     0.0000000000000000
8      1         14.1052164507959148     2.0150408302653062     1.7099745627301266
9      1         16.1202491209363714     0.0000000000000000     0.0000000000000000
10     1         18.1352817910768245     2.0150408302653062     1.7099745627301266
11     1         20.1503103811548563     0.0000000000000000     0.0000000000000000
12     1         22.1653430512953129     2.0150408302653062     1.7099745627301266
13     1         24.1803757214357695     0.0000000000000000     0.0000000000000000
14     1         26.1954043115138013     2.0150408302653062     1.7099745627301266
15     1         28.2104369816542579     0.0000000000000000     0.0000000000000000
16     1         30.2254696517947146     2.0150408302653062     1.7099745627301266
17     1         32.2404982418727428     0.0000000000000000     0.0000000000000000
18     1         34.2555309120131994     2.0150408302653062     1.7099745627301266
19     1         36.2705635821536490     0.0000000000000000     0.0000000000000000
20     1         38.2855921722316879     2.0150408302653062     1.7099745627301266
ITEM: TIMESTEP energy, energy_weight, force_weight, nsims
3        -120289.5676012929179706    1    1   21
ITEM: NUMBER OF ATOMS
20        
ITEM: BOX BOUNDS xy xz yz pp pp pp
    0.0000000000000000     41.3006438349780964      0.0000000000000002
    0.0000000000000000      4.0300755247733271      0.0000000000000002
    0.0000000000000000      3.4199411133991964      0.0000000000000002
ITEM: ATOMS id type x y z
1      1          0.0000000000000000     0.0000000000000000     0.0000000000000000
2      1          2.0150336323222802     2.0150377623866635     1.7099705566995982
3      1          4.0300631345801774     0.0000000000000000     0.0000000000000000
4      1          6.0450967669024571     2.0150377623866635     1.7099705566995982
5      1          8.0601303992247377     0.0000000000000000     0.0000000000000000
6      1         10.0751599014826336     2.0150377623866635     1.7099705566995982
7      1         12.0901935338049142     0.0000000000000000     0.0000000000000000
8      1         14.1052271661271948     2.0150377623866635     1.7099705566995982
9      1         16.1202566683850925     0.0000000000000000     0.0000000000000000
10     1         18.1352903007073714     2.0150377623866635     1.7099705566995982
11     1         20.1503198029652673     0.0000000000000000     0.0000000000000000
12     1         22.1653534352875496     2.0150377623866635     1.7099705566995982
13     1         24.1803870676098285     0.0000000000000000     0.0000000000000000
14     1         26.1954165698677279     2.0150377623866635     1.7099705566995982
15     1         28.2104502021900068     0.0000000000000000     0.0000000000000000
16     1         30.2254838345122891     2.0150377623866635     1.7099705566995982
17     1         32.2405133367701850     0.0000000000000000     0.0000000000000000
18     1         34.2555469690924639     2.0150377623866635     1.7099705566995982
19     1         36.2705806014147427     0.0000000000000000     0.0000000000000000
20     1         38.2856101036726457     2.0150377623866635     1.7099705566995982
ITEM: TIMESTEP energy, energy_weight, force_weight, nsims
4        -120289.3801976322865812    1    1   21
ITEM: NUMBER OF ATOMS
20        
ITEM: BOX BOUNDS xy xz yz pp pp pp
    0.0000000000000000     41.8006104998332972      0.0000000000000002
    0.0000000000000000      4.0300804595099278      0.0000000000000002
    0.0000000000000000      3.4199169480438609      0.0000000000000002
ITEM: ATOMS id type x y z
1      1          0.0000000000000000     0.0000000000000000     0.0000000000000000
2      1          2.0150318696328640     2.0150402297549639     1.7099584740219305
3      1          4.0300595592046777     0.0000000000000000     0.0000000000000000
4      1          6.0450914288375417     2.0150402297549639     1.7099584740219305
5      1          8.0601232984704065     0.0000000000000000     0.0000000000000000
6      1         10.0751509880422194     2.0150402297549639     1.7099584740219305
7      1         12.0901828576750834     0.0000000000000000     0.0000000000000000
8      1         14.1052147273079473     2.0150402297549639     1.7099584740219305
9      1         16.1202424168797620     0.0000000000000000     0.0000000000000000
10     1         18.1352742865126260     2.0150402297549639     1.7099584740219305
11     1         20.1503061561454899     0.0000000000000000     0.0000000000000000
12     1         22.1653380257783539     2.0150402297549639     1.7099584740219305
13     1         24.1803657153501668     0.0000000000000000     0.0000000000000000
14     1         26.1953975849830307     2.0150402297549639     1.7099584740219305
15     1         28.2104294546158947     0.0000000000000000     0.0000000000000000
16     1         30.2254571441877076     2.0150402297549639     1.7099584740219305
17     1         32.2404890138205786     0.0000000000000000     0.0000000000000000
18     1         34.2555208834534355     2.0150402297549639     1.7099584740219305
19     1         36.2705485730252519     0.0000000000000000     0.0000000000000000
20     1         38.2855804426581159     2.0150402297549639     1.7099584740219305
ITEM: TIMESTEP energy, energy_weight, force_weight, nsims
5        -120289.2556350174709223    1    1   21
ITEM: NUMBER OF ATOMS
20        
ITEM: BOX BOUNDS xy xz yz pp pp pp
    0.0000000000000000     42.3006300824133987      0.0000000000000002
    0.0000000000000000      4.0300656292116894      0.0000000000000002
    0.0000000000000000      3.4199213409029583      0.0000000000000002
ITEM: ATOMS id type x y z
1      1          0.0000000000000000     0.0000000000000000     0.0000000000000000
2      1          2.0150328146058447     2.0150328146058447     1.7099606704514791
3      1          4.0300613991486811     0.0000000000000000     0.0000000000000000
4      1          6.0450942137545258     2.0150328146058447     1.7099606704514791
5      1          8.0601270283603696     0.0000000000000000     0.0000000000000000
6      1         10.0751556129032060     2.0150328146058447     1.7099606704514791
7      1         12.0901884275090516     0.0000000000000000     0.0000000000000000
8      1         14.1052212421148973     2.0150328146058447     1.7099606704514791
9      1         16.1202498266577301     0.0000000000000000     0.0000000000000000
10     1         18.1352826412635757     2.0150328146058447     1.7099606704514791
11     1         20.1503154558694213     0.0000000000000000     0.0000000000000000
12     1         22.1653482704752633     2.0150328146058447     1.7099606704514791
13     1         24.1803768550181033     0.0000000000000000     0.0000000000000000
14     1         26.1954096696239489     2.0150328146058447     1.7099606704514791
15     1         28.2104424842297945     0.0000000000000000     0.0000000000000000
16     1         30.2254710687726273     2.0150328146058447     1.7099606704514791
17     1         32.2405038833784729     0.0000000000000000     0.0000000000000000
18     1         34.2555366979843186     2.0150328146058447     1.7099606704514791
19     1         36.2705652825271514     0.0000000000000000     0.0000000000000000
20     1         38.2855980971329970     2.0150328146058447     1.7099606704514791
ITEM: TIMESTEP energy, energy_weight, force_weight, nsims
6        -120289.1857800982397748    1    1   21
ITEM: NUMBER OF ATOMS
20        
ITEM: BOX BOUNDS xy xz yz pp pp pp
    0.0000000000000000     42.8005967472685995      0.0000000000000002
    0.0000000000000000      4.0300613891260637      0.0000000000000002
    0.0000000000000000      3.4199388824937502      0.0000000000000002
ITEM: ATOMS id type x y z
1      1          0.0000000000000000     0.0000000000000000     0.0000000000000000
2      1          2.0150306945630323     2.0150306945630319     1.7099694412468751
3      1          4.0300613891260646     0.0000000000000000     0.0000000000000000
4      1          6.0450878036294204     2.0150306945630319     1.7099694412468751
5      1          8.0601184981924536     0.0000000000000000     0.0000000000000000
6      1         10.0751491927554859     2.0150306945630319     1.7099694412468751
7      1         12.0901798873185164     0.0000000000000000     0.0000000000000000
8      1         14.1052105818815505     2.0150306945630319     1.7099694412468751
9      1         16.1202412764445810     0.0000000000000000     0.0000000000000000
10     1         18.1352676909479378     2.0150306945630319     1.7099694412468751
11     1         20.1502983855109719     0.0000000000000000     0.0000000000000000
12     1         22.1653290800740024     2.0150306945630319     1.7099694412468751
13     1         24.1803597746370329     0.0000000000000000     0.0000000000000000
14     1         26.1953904692000670     2.0150306945630319     1.7099694412468751
15     1         28.2104168837034237     0.0000000000000000     0.0000000000000000
16     1         30.2254475782664578     2.0150306945630319     1.7099694412468751
17     1         32.2404782728294848     0.0000000000000000     0.0000000000000000
18     1         34.2555089673925224     2.0150306945630319     1.7099694412468751
19     1         36.2705396619555529     0.0000000000000000     0.0000000000000000
20     1         38.2855660764589061     2.0150306945630319     1.7099694412468751
ITEM: TIMESTEP energy, energy_weight, force_weight, nsims
7        -120289.1507473305100575    1    1   21
ITEM: NUMBER OF ATOMS
20        
ITEM: BOX BOUNDS xy xz yz pp pp pp
    0.0000000000000000     43.3006163298487010      0.0000000000000002
    0.0000000000000000      4.0300749630516783      0.0000000000000002
    0.0000000000000000      3.4199259783477798      0.0000000000000002
ITEM: ATOMS id type x y z
1      1          0.0000000000000000     0.0000000000000000     0.0000000000000000
2      1          2.0150288214025731     2.0150374815258392     1.7099629891738899
3      1          4.0300619728667790     0.0000000000000000     0.0000000000000000
4      1          6.0450907942693526     2.0150374815258392     1.7099629891738899
5      1          8.0601239457335581     0.0000000000000000     0.0000000000000000
6      1         10.0751527671361316     2.0150374815258392     1.7099629891738899
7      1         12.0901859186003371     0.0000000000000000     0.0000000000000000
8      1         14.1052147400029124     2.0150374815258392     1.7099629891738899
9      1         16.1202478914671161     0.0000000000000000     0.0000000000000000
10     1         18.1352767128696897     2.0150374815258392     1.7099629891738899
11     1         20.1503098643338987     0.0000000000000000     0.0000000000000000
12     1         22.1653386857364723     2.0150374815258392     1.7099629891738899
13     1         24.1803718372006742     0.0000000000000000     0.0000000000000000
14     1         26.1954006586032477     2.0150374815258392     1.7099629891738899
15     1         28.2104294800058248     0.0000000000000000     0.0000000000000000
16     1         30.2254626314700268     2.0150374815258392     1.7099629891738899
17     1         32.2404914528726039     0.0000000000000000     0.0000000000000000
18     1         34.2555246043368058     2.0150374815258392     1.7099629891738899
19     1         36.2705534257393793     0.0000000000000000     0.0000000000000000
20     1         38.2855865772035884     2.0150374815258392     1.7099629891738899
ITEM: TIMESTEP energy, energy_weight, force_weight, nsims
8        -120289.1344852559559513    1    1   21
ITEM: NUMBER OF ATOMS
20        
ITEM: BOX BOUNDS xy xz yz pp pp pp
    0.0000000000000000     43.8006359124287954      0.0000000000000002
    0.0000000000000000      4.0300527096666601      0.0000000000000002
    0.0000000000000000      3.4199098514065271      0.0000000000000002
ITEM: ATOMS id type x y z
1      1          0.0000000000000000     0.0000000000000000     0.0000000000000000
2      1          2.0150307348969219     2.0150263548333300     1.7099549257032636
3      1          4.0300614697938437     0.0000000000000000     0.0000000000000000
4      1          6.0450965847543561     2.0150263548333300     1.7099549257032636
5      1          8.0601273196512775     0.0000000000000000     0.0000000000000000
6      1         10.0751580545482007     2.0150263548333300     1.7099549257032636
7      1         12.0901887894451221     0.0000000000000000     0.0000000000000000
8      1         14.1052239044056353     2.0150263548333300     1.7099549257032636
9      1         16.1202546393025550     0.0000000000000000     0.0000000000000000
10     1         18.1352853741994799     2.0150263548333300     1.7099549257032636
11     1         20.1503161090964014     0.0000000000000000     0.0000000000000000
12     1         22.1653468439933228     2.0150263548333300     1.7099549257032636
13     1         24.1803819589538378     0.0000000000000000     0.0000000000000000
14     1         26.1954126938507557     2.0150263548333300     1.7099549257032636
15     1         28.2104434287476806     0.0000000000000000     0.0000000000000000
16     1         30.2254741636445985     2.0150263548333300     1.7099549257032636
17     1         32.2405092786051100     0.0000000000000000     0.0000000000000000
18     1         34.2555400135020349     2.0150263548333300     1.7099549257032636
19     1         36.2705707483989599     0.0000000000000000     0.0000000000000000
20     1         38.2856014832958778     2.0150263548333300     1.7099549257032636
ITEM: TIMESTEP energy, energy_weight, force_weight, nsims
9        -120289.1270691980898846    1    1   21
ITEM: NUMBER OF ATOMS
20        
ITEM: BOX BOUNDS xy xz yz pp pp pp
    0.0000000000000000     44.3006025772839962      0.0000000000000002
    0.0000000000000000      4.0300701170581021      0.0000000000000002
    0.0000000000000000      3.4199179177611696      0.0000000000000002
ITEM: ATOMS id type x y z
1      1          0.0000000000000000     0.0000000000000000     0.0000000000000000
2      1          2.0150306284687938     2.0150350585290511     1.7099589588805848
3      1          4.0300612569375875     0.0000000000000000     0.0000000000000000
4      1          6.0450918854063804     2.0150350585290511     1.7099589588805848
5      1          8.0601225138751751     0.0000000000000000     0.0000000000000000
6      1         10.0751531423439662     2.0150350585290511     1.7099589588805848
7      1         12.0901793407525027     0.0000000000000000     0.0000000000000000
8      1         14.1052099692212973     2.0150350585290511     1.7099589588805848
9      1         16.1202405976900920     0.0000000000000000     0.0000000000000000
10     1         18.1352712261588849     2.0150350585290511     1.7099589588805848
11     1         20.1503018546276778     0.0000000000000000     0.0000000000000000
12     1         22.1653324830964742     2.0150350585290511     1.7099589588805848
13     1         24.1803631115652671     0.0000000000000000     0.0000000000000000
14     1         26.1953937400340564     2.0150350585290511     1.7099589588805848
15     1         28.2104243685028493     0.0000000000000000     0.0000000000000000
16     1         30.2254549969716422     2.0150350585290511     1.7099589588805848
17     1         32.2404811953801840     0.0000000000000000     0.0000000000000000
18     1         34.2555118238489769     2.0150350585290511     1.7099589588805848
19     1         36.2705424523177697     0.0000000000000000     0.0000000000000000
20     1         38.2855730807865555     2.0150350585290511     1.7099589588805848
ITEM: TIMESTEP energy, energy_weight, force_weight, nsims
10       -120289.1235819216381060    1    1   21
ITEM: NUMBER OF ATOMS
20        
ITEM: BOX BOUNDS xy xz yz pp pp pp
    0.0000000000000000     44.8006221598640977      0.0000000000000002
    0.0000000000000000      4.0300399663905742      0.0000000000000002
    0.0000000000000000      3.4199450938175455      0.0000000000000002
ITEM: ATOMS id type x y z
1      1          0.0000000000000000     0.0000000000000000     0.0000000000000000
2      1          2.0150289433197197     2.0150199831952871     1.7099725469087728
3      1          4.0300623667016549     0.0000000000000000     0.0000000000000000
4      1          6.0450913100213741     2.0150199831952871     1.7099725469087728
5      1          8.0601247334033097     0.0000000000000000     0.0000000000000000
6      1         10.0751536767230281     2.0150199831952871     1.7099725469087728
7      1         12.0901871001049646     0.0000000000000000     0.0000000000000000
8      1         14.1052160434246847     2.0150199831952871     1.7099725469087728
9      1         16.1202494668066194     0.0000000000000000     0.0000000000000000
10     1         18.1352784101263396     2.0150199831952871     1.7099725469087728
11     1         20.1503118335082725     0.0000000000000000     0.0000000000000000
12     1         22.1653407768279926     2.0150199831952871     1.7099725469087728
13     1         24.1803742002099291     0.0000000000000000     0.0000000000000000
14     1         26.1954031435296493     2.0150199831952871     1.7099725469087728
15     1         28.2104365669115822     0.0000000000000000     0.0000000000000000
16     1         30.2254655102313023     2.0150199831952871     1.7099725469087728
17     1         32.2404989336132388     0.0000000000000000     0.0000000000000000
18     1         34.2555278769329590     2.0150199831952871     1.7099725469087728
19     1         36.2705613003148954     0.0000000000000000     0.0000000000000000
20     1         38.2855902436346156     2.0150199831952871     1.7099725469087728
ITEM: TIMESTEP energy, energy_weight, force_weight, nsims
11       -120289.1217975343461148    1    1   21
ITEM: NUMBER OF ATOMS
20        
ITEM: BOX BOUNDS xy xz yz pp pp pp
    0.0000000000000000     45.3006417424441992      0.0000000000000002
    0.0000000000000000      4.0300809913330635      0.0000000000000002
    0.0000000000000000      3.4199266477040822      0.0000000000000002
ITEM: ATOMS id type x y z
1      1          0.0000000000000000     0.0000000000000000     0.0000000000000000
2      1          2.0150314355381833     2.0150404956665318     1.7099633238520411
3      1          4.0300628710763666     0.0000000000000000     0.0000000000000000
4      1          6.0450943066145495     2.0150404956665318     1.7099633238520411
5      1          8.0601257421527333     0.0000000000000000     0.0000000000000000
6      1         10.0751617077550897     2.0150404956665318     1.7099633238520411
7      1         12.0901931432932734     0.0000000000000000     0.0000000000000000
8      1         14.1052245788314572     2.0150404956665318     1.7099633238520411
9      1         16.1202560143696410     0.0000000000000000     0.0000000000000000
10     1         18.1352874499078247     2.0150404956665318     1.7099633238520411
11     1         20.1503188854460049     0.0000000000000000     0.0000000000000000
12     1         22.1653503209841887     2.0150404956665318     1.7099633238520411
13     1         24.1803817565223689     0.0000000000000000     0.0000000000000000
14     1         26.1954177221247271     2.0150404956665318     1.7099633238520411
15     1         28.2104491576629144     0.0000000000000000     0.0000000000000000
16     1         30.2254805932010946     2.0150404956665318     1.7099633238520411
17     1         32.2405120287392819     0.0000000000000000     0.0000000000000000
18     1         34.2555434642774586     2.0150404956665318     1.7099633238520411
19     1         36.2705748998156494     0.0000000000000000     0.0000000000000000
20     1         38.2856063353538261     2.0150404956665318     1.7099633238520411
ITEM: TIMESTEP energy, energy_weight, force_weight, nsims
12       -120289.1208334345719777    1    1   21
ITEM: NUMBER OF ATOMS
20        
ITEM: BOX BOUNDS xy xz yz pp pp pp
    0.0000000000000000     45.8006084072994000      0.0000000000000002
    0.0000000000000000      4.0300413343666808      0.0000000000000002
    0.0000000000000000      3.4199314297730461      0.0000000000000002
ITEM: ATOMS id type x y z
1      1          0.0000000000000000     0.0000000000000000     0.0000000000000000
2      1          2.0150298273050220     2.0150206671833404     1.7099657148865230
3      1          4.0300596546100440     0.0000000000000000     0.0000000000000000
4      1          6.0450894819150669     2.0150206671833404     1.7099657148865230
5      1          8.0601238892809288     0.0000000000000000     0.0000000000000000
6      1         10.0751537165859517     2.0150206671833404     1.7099657148865230
7      1         12.0901835438909746     0.0000000000000000     0.0000000000000000
8      1         14.1052133711959975     2.0150206671833404     1.7099657148865230
9      1         16.1202431985010186     0.0000000000000000     0.0000000000000000
10     1         18.1352730258060397     2.0150206671833404     1.7099657148865230
11     1         20.1503028531110608     0.0000000000000000     0.0000000000000000
12     1         22.1653372604769281     2.0150206671833404     1.7099657148865230
13     1         24.1803670877819492     0.0000000000000000     0.0000000000000000
14     1         26.1953969150869668     2.0150206671833404     1.7099657148865230
15     1         28.2104267423919950     0.0000000000000000     0.0000000000000000
16     1         30.2254565696970161     2.0150206671833404     1.7099657148865230
17     1         32.2404863970020372     0.0000000000000000     0.0000000000000000
18     1         34.2555162243070583     2.0150206671833404     1.7099657148865230
19     1         36.2705506316729185     0.0000000000000000     0.0000000000000000
20     1         38.2855804589779396     2.0150206671833404     1.7099657148865230
ITEM: TIMESTEP energy, energy_weight, force_weight, nsims
13       -120289.1203188670770032    1    1   21
ITEM: NUMBER OF ATOMS
20        
ITEM: BOX BOUNDS xy xz yz pp pp pp
    0.0000000000000000     46.3006279898795015      0.0000000000000002
    0.0000000000000000      4.0300529608671010      0.0000000000000002
    0.0000000000000000      3.4199495858444595      0.0000000000000002
ITEM: ATOMS id type x y z
1      1          0.0000000000000000     0.0000000000000000     0.0000000000000000
2      1          2.0150311104963499     2.0150264804335505     1.7099747929222298
3      1          4.0300622209926997     0.0000000000000000     0.0000000000000000
4      1          6.0450933314890500     2.0150264804335505     1.7099747929222298
5      1          8.0601244419853995     0.0000000000000000     0.0000000000000000
6      1         10.0751555524817480     2.0150264804335505     1.7099747929222298
7      1         12.0901866629781001     0.0000000000000000     0.0000000000000000
8      1         14.1052177734744468     2.0150264804335505     1.7099747929222298
9      1         16.1202488839707989     0.0000000000000000     0.0000000000000000
10     1         18.1352799944671510     2.0150264804335505     1.7099747929222298
11     1         20.1503111049634960     0.0000000000000000     0.0000000000000000
12     1         22.1653468455226488     2.0150264804335505     1.7099747929222298
13     1         24.1803779560189973     0.0000000000000000     0.0000000000000000
14     1         26.1954090665153458     2.0150264804335505     1.7099747929222298
15     1         28.2104401770116979     0.0000000000000000     0.0000000000000000
16     1         30.2254712875080465     2.0150264804335505     1.7099747929222298
17     1         32.2405023980044021     0.0000000000000000     0.0000000000000000
18     1         34.2555335085007471     2.0150264804335505     1.7099747929222298
19     1         36.2705646189970921     0.0000000000000000     0.0000000000000000
20     1         38.2855957294934441     2.0150264804335505     1.7099747929222298
ITEM: TIMESTEP energy, energy_weight, force_weight, nsims
14       -120289.1200164124020375    1    1   21
ITEM: NUMBER OF ATOMS
20        
ITEM: BOX BOUNDS xy xz yz pp pp pp
    0.0000000000000000     46.8006475724595958      0.0000000000000002
    0.0000000000000000      4.0300505631120682      0.0000000000000002
    0.0000000000000000      3.4199105207099123      0.0000000000000002
ITEM: ATOMS id type x y z
1      1          0.0000000000000000     0.0000000000000000     0.0000000000000000
2      1          2.0150299616207912     2.0150252815560341     1.7099552603549562
3      1          4.0300646033063403     0.0000000000000000     0.0000000000000000
4      1          6.0450945649271315     2.0150252815560341     1.7099552603549562
5      1          8.0601292066126806     0.0000000000000000     0.0000000000000000
6      1         10.0751591682334709     2.0150252815560341     1.7099552603549562
7      1         12.0901938099190200     0.0000000000000000     0.0000000000000000
8      1         14.1052237715398103     2.0150252815560341     1.7099552603549562
9      1         16.1202584132253612     0.0000000000000000     0.0000000000000000
10     1         18.1352883748461515     2.0150252815560341     1.7099552603549562
11     1         20.1503230165317007     0.0000000000000000     0.0000000000000000
12     1         22.1653529781524909     2.0150252815560341     1.7099552603549562
13     1         24.1803876198380401     0.0000000000000000     0.0000000000000000
14     1         26.1954175814588304     2.0150252815560341     1.7099552603549562
15     1         28.2104522231443795     0.0000000000000000     0.0000000000000000
16     1         30.2254821847651698     2.0150252815560341     1.7099552603549562
17     1         32.2405168264507225     0.0000000000000000     0.0000000000000000
18     1         34.2555467880715128     2.0150252815560341     1.7099552603549562
19     1         36.2705814297570583     0.0000000000000000     0.0000000000000000
20     1         38.2856113913778486     2.0150252815560341     1.7099552603549562
ITEM: TIMESTEP energy, energy_weight, force_weight, nsims
15       -120289.1198327354795765    1    1   21
ITEM: NUMBER OF ATOMS
20        
ITEM: BOX BOUNDS xy xz yz pp pp pp
    0.0000000000000000     47.3006142373147966      0.0000000000000002
    0.0000000000000000      4.0300596336334573      0.0000000000000002
    0.0000000000000000      3.4199290105863347      0.0000000000000002
ITEM: ATOMS id type x y z
1      1          0.0000000000000000     0.0000000000000000     0.0000000000000000
2      1          2.0150298168167291     2.0150298168167287     1.7099645052931673
3      1          4.0300596336334582     0.0000000000000000     0.0000000000000000
4      1          6.0450941805116098     2.0150298168167287     1.7099645052931673
5      1          8.0601239973283398     0.0000000000000000     0.0000000000000000
6      1         10.0751538141450681     2.0150298168167287     1.7099645052931673