ITEM: TIMESTEP energy, energy_weight, force_weight, nsims
1        -120289.9860094342293451    1    1   21
ITEM: NUMBER OF ATOMS
20        
ITEM: BOX BOUNDS xy xz yz pp pp pp
    0.0000000000000000      4.0300551752093021      0.0000000000000002
    0.0000000000000000      4.0300551752093012      0.0000000000000021
    0.0000000000000000     34.1992376294193505      0.0000000000000021
ITEM: ATOMS id type x y z
1      1          0.0000000000000000     0.0000000000000000     0.0000000000000000
2      1          2.0150275876046497     2.0150275876046497     1.7099618814709676
3      1          0.0000000000000002     0.0000000000000002     3.4199237629419352
4      1          2.0150275876046502     2.0150275876046502     5.1298856444129024
5      1          0.0000000000000004     0.0000000000000004     6.8398475258838705
6      1          2.0150275876046502     2.0150275876046502     8.5498094073548376
7      1          0.0000000000000006     0.0000000000000006    10.2597712888258048
8      1          2.0150275876046506     2.0150275876046506    11.9697331702967720
9      1          0.0000000000000008     0.0000000000000008    13.6796950517677409
10     1          2.0150275876046506     2.0150275876046506    15.3896569332387081
11     1          0.0000000000000010     0.0000000000000010    17.0996188147096753
12     1          2.0150275876046511     2.0150275876046511    18.8095806961806460
13     1          0.0000000000000013     0.0000000000000013    20.5195425776516096
14     1          2.0150275876046511     2.0150275876046511    22.2295044591225803
15     1          0.0000000000000015     0.0000000000000015    23.9394663405935439
16     1          2.0150275876046515     2.0150275876046515    25.6494282220645147
17     1          0.0000000000000017     0.0000000000000017    27.3593901035354818
18     1          2.0150275876046515     2.0150275876046515    29.0693519850064455
19     1          0.0000000000000019     0.0000000000000019    30.7793138664774162
20     1          2.0150275876046515     2.0150275876046515    32.4892757479483834
ITEM: TIMESTEP energy, energy_weight, force_weight, nsims
2        -120289.8446142579487059    1    1   21
ITEM: NUMBER OF ATOMS
20        
ITEM: BOX BOUNDS xy xz yz pp pp pp
    0.0000000000000000      4.0300551752093021      0.0000000000000002
    0.0000000000000000      4.0300551752093012      0.0000000000000021
    0.0000000000000000     34.6992385148972247      0.0000000000000021
ITEM: ATOMS id type x y z
1      1          0.0000000000000000     0.0000000000000000     0.0000000000000000
2      1          2.0150275876046497     2.0150275876046497     1.7099611243948776
3      1          0.0000000000000002     0.0000000000000002     3.4199222487897551
4      1          2.0150275876046502     2.0150275876046502     5.1298868431084843
5      1          0.0000000000000004     0.0000000000000004     6.8398479675033625
6      1          2.0150275876046502     2.0150275876046502     8.5498090918982399
7      1          0.0000000000000006     0.0000000000000006    10.2597702162931199
8      1          2.0150275876046506     2.0150275876046506    11.9697348106118469
9      1          0.0000000000000008     0.0000000000000008    13.6796959350067251
10     1          2.0150275876046506     2.0150275876046506    15.3896570594016033
11     1          0.0000000000000010     0.0000000000000010    17.0996181837964798
12     1          2.0150275876046511     2.0150275876046511    18.8095827781152103
13     1          0.0000000000000013     0.0000000000000013    20.5195439025100868
14     1          2.0150275876046511     2.0150275876046511    22.2295050269049668
15     1          0.0000000000000015     0.0000000000000015    23.9394661512998432
16     1          2.0150275876046515     2.0150275876046515    25.6494307456185737
17     1          0.0000000000000017     0.0000000000000017    27.3593918700134502
18     1          2.0150275876046515     2.0150275876046515    29.0693529944083267
19     1          0.0000000000000019     0.0000000000000019    30.7793141188032067
20     1          2.0150275876046515     2.0150275876046515    32.4892787131219336
ITEM: TIMESTEP energy, energy_weight, force_weight, nsims
3        -120289.6124100268352777    1    1   21
ITEM: NUMBER OF ATOMS
20        
ITEM: BOX BOUNDS xy xz yz pp pp pp
    0.0000000000000000      4.0300551752093021      0.0000000000000002
    0.0000000000000000      4.0300551752093012      0.0000000000000022
    0.0000000000000000     35.1992394003750917      0.0000000000000022
ITEM: ATOMS id type x y z
1      1          0.0000000000000000     0.0000000000000000     0.0000000000000000
2      1          2.0150275876046497     2.0150275876046497     1.7099614504505216
3      1          0.0000000000000002     0.0000000000000002     3.4199229009010432
4      1          2.0150275876046502     2.0150275876046502     5.1298878712755052
5      1          0.0000000000000004     0.0000000000000004     6.8398493217260272
6      1          2.0150275876046502     2.0150275876046502     8.5498107721765493
7      1          0.0000000000000006     0.0000000000000006    10.2597722226270704
8      1          2.0150275876046506     2.0150275876046506    11.9697336730775916
9      1          0.0000000000000008     0.0000000000000008    13.6796951235281128
10     1          2.0150275876046506     2.0150275876046506    15.3896600939025756
11     1          0.0000000000000010     0.0000000000000010    17.0996215443530986
12     1          2.0150275876046511     2.0150275876046511    18.8095829948036197
13     1          0.0000000000000013     0.0000000000000013    20.5195444452541409
14     1          2.0150275876046511     2.0150275876046511    22.2295058957046621
15     1          0.0000000000000015     0.0000000000000015    23.9394673461551832
16     1          2.0150275876046515     2.0150275876046515    25.6494323165296478
17     1          0.0000000000000017     0.0000000000000017    27.3593937669801690
18     1          2.0150275876046515     2.0150275876046515    29.0693552174306902
19     1          0.0000000000000019     0.0000000000000019    30.7793166678812113
20     1          2.0150275876046515     2.0150275876046515    32.4892781183317325
ITEM: TIMESTEP energy, energy_weight, force_weight, nsims
4        -120289.4052166062319884    1    1   21
ITEM: NUMBER OF ATOMS
20        
ITEM: BOX BOUNDS xy xz yz pp pp pp
    0.0000000000000000      4.0300551752093021      0.0000000000000002
    0.0000000000000000      4.0300551752093012      0.0000000000000022
    0.0000000000000000     35.6992362557977856      0.0000000000000022
ITEM: ATOMS id type x y z
1      1          0.0000000000000000     0.0000000000000000     0.0000000000000000
2      1          2.0150275876046497     2.0150275876046497     1.7099612873400838
3      1          0.0000000000000002     0.0000000000000002     3.4199225746801676
4      1          2.0150275876046502     2.0150275876046502     5.1298874319438772
5      1          0.0000000000000004     0.0000000000000004     6.8398487192839603
6      1          2.0150275876046502     2.0150275876046502     8.5498100066240443
7      1          0.0000000000000006     0.0000000000000006    10.2597712939641283
8      1          2.0150275876046506     2.0150275876046506    11.9697325813042106
9      1          0.0000000000000008     0.0000000000000008    13.6796938686442946
10     1          2.0150275876046506     2.0150275876046506    15.3896587259080047
11     1          0.0000000000000010     0.0000000000000010    17.0996200132480887
12     1          2.0150275876046511     2.0150275876046511    18.8095813005881745
13     1          0.0000000000000013     0.0000000000000013    20.5195425879282567
14     1          2.0150275876046511     2.0150275876046511    22.2295038752683389
15     1          0.0000000000000015     0.0000000000000015    23.9394687325320490
16     1          2.0150275876046515     2.0150275876046515    25.6494300198721312
17     1          0.0000000000000017     0.0000000000000017    27.3593913072122135
18     1          2.0150275876046515     2.0150275876046515    29.0693525945523028
19     1          0.0000000000000019     0.0000000000000019    30.7793138818923850
20     1          2.0150275876046515     2.0150275876046515    32.4892751692324637
ITEM: TIMESTEP energy, energy_weight, force_weight, nsims
5        -120289.2569564028526656    1    1   21
ITEM: NUMBER OF ATOMS
20        
ITEM: BOX BOUNDS xy xz yz pp pp pp
    0.0000000000000000      4.0300551752093021      0.0000000000000002
    0.0000000000000000      4.0300551752093012      0.0000000000000022
    0.0000000000000000     36.1992371412756455      0.0000000000000022
ITEM: ATOMS id type x y z
1      1          0.0000000000000000     0.0000000000000000     0.0000000000000000
2      1          2.0150275876046497     2.0150275876046497     1.7099614644610084
3      1          0.0000000000000002     0.0000000000000002     3.4199229289220168
4      1          2.0150275876046502     2.0150275876046502     5.1298843933830245
5      1          0.0000000000000004     0.0000000000000004     6.8398494777677481
6      1          2.0150275876046502     2.0150275876046502     8.5498109422287563
7      1          0.0000000000000006     0.0000000000000006    10.2597724066897626
8      1          2.0150275876046506     2.0150275876046506    11.9697338711507708
9      1          0.0000000000000008     0.0000000000000008    13.6796953356117807
10     1          2.0150275876046506     2.0150275876046506    15.3896568000727889
11     1          0.0000000000000010     0.0000000000000010    17.0996218844575125
12     1          2.0150275876046511     2.0150275876046511    18.8095833489185225
13     1          0.0000000000000013     0.0000000000000013    20.5195448133795253
14     1          2.0150275876046511     2.0150275876046511    22.2295062778405352
15     1          0.0000000000000015     0.0000000000000015    23.9394677423015416
16     1          2.0150275876046515     2.0150275876046515    25.6494292067625516
17     1          0.0000000000000017     0.0000000000000017    27.3593906712235615
18     1          2.0150275876046515     2.0150275876046515    29.0693557556082851
19     1          0.0000000000000019     0.0000000000000019    30.7793172200692915
20     1          2.0150275876046515     2.0150275876046515    32.4892786845302979
ITEM: TIMESTEP energy, energy_weight, force_weight, nsims
6        -120289.1663620459439699    1    1   21
ITEM: NUMBER OF ATOMS
20        
ITEM: BOX BOUNDS xy xz yz pp pp pp
    0.0000000000000000      4.0300551752093021      0.0000000000000002
    0.0000000000000000      4.0300551752093021      0.0000000000000022
    0.0000000000000000     36.6992339966983394      0.0000000000000022
ITEM: ATOMS id type x y z
1      1          0.0000000000000000     0.0000000000000000     0.0000000000000000
2      1          2.0150275876046497     2.0150275876046497     1.7099604389187628
3      1          0.0000000000000002     0.0000000000000002     3.4199245477609255
4      1          2.0150275876046502     2.0150275876046502     5.1298849866796887
5      1          0.0000000000000004     0.0000000000000004     6.8398490955218509
6      1          2.0150275876046502     2.0150275876046502     8.5498095344406124
7      1          0.0000000000000006     0.0000000000000006    10.2597699733593775
8      1          2.0150275876046506     2.0150275876046506    11.9697340822015388
9      1          0.0000000000000008     0.0000000000000008    13.6796945211203020
10     1          2.0150275876046506     2.0150275876046506    15.3896586299624634
11     1          0.0000000000000010     0.0000000000000010    17.0996190688812248
12     1          2.0150275876046511     2.0150275876046511    18.8095795077999881
13     1          0.0000000000000013     0.0000000000000013    20.5195436166421494
14     1          2.0150275876046511     2.0150275876046511    22.2295040555609127
15     1          0.0000000000000015     0.0000000000000015    23.9394681644030776
16     1          2.0150275876046515     2.0150275876046515    25.6494286033218373
17     1          0.0000000000000017     0.0000000000000017    27.3593890422406041
18     1          2.0150275876046515     2.0150275876046515    29.0693531510827654
19     1          0.0000000000000019     0.0000000000000019    30.7793135900015287
20     1          2.0150275876046515     2.0150275876046515    32.4892776988436935
ITEM: TIMESTEP energy, energy_weight, force_weight, nsims
7        -120289.1175305153010413    1    1   21
ITEM: NUMBER OF ATOMS
20        
ITEM: BOX BOUNDS xy xz yz pp pp pp
    0.0000000000000000      4.0300551752093021      0.0000000000000002
    0.0000000000000000      4.0300551752093021      0.0000000000000023
    0.0000000000000000     37.1992348821762135      0.0000000000000023
ITEM: ATOMS id type x y z
1      1          0.0000000000000000     0.0000000000000000     0.0000000000000000
2      1          2.0150275876046497     2.0150275876046497     1.7099632692934115
3      1          0.0000000000000002     0.0000000000000002     3.4199228186633346
4      1          2.0150275876046502     2.0150275876046502     5.1298860879567467
5      1          0.0000000000000004     0.0000000000000004     6.8398493572501575
6      1          2.0150275876046502     2.0150275876046502     8.5498089066200809
7      1          0.0000000000000006     0.0000000000000006    10.2597721759134934
8      1          2.0150275876046506     2.0150275876046506    11.9697354452069042
9      1          0.0000000000000008     0.0000000000000008    13.6796949945768276
10     1          2.0150275876046506     2.0150275876046506    15.3896582638702384
11     1          0.0000000000000010     0.0000000000000010    17.0996215331636492
12     1          2.0150275876046511     2.0150275876046511    18.8095810825335761
13     1          0.0000000000000013     0.0000000000000013    20.5195443518269869
14     1          2.0150275876046511     2.0150275876046511    22.2295076211203977
15     1          0.0000000000000015     0.0000000000000015    23.9394671704903210
16     1          2.0150275876046515     2.0150275876046515    25.6494304397837318
17     1          0.0000000000000017     0.0000000000000017    27.3593937090771462
18     1          2.0150275876046515     2.0150275876046515    29.0693532584470695
19     1          0.0000000000000019     0.0000000000000019    30.7793165277404768
20     1          2.0150275876046515     2.0150275876046515    32.4892760771104037
ITEM: TIMESTEP energy, energy_weight, force_weight, nsims
8        -120289.0936699304875219    1    1   21
ITEM: NUMBER OF ATOMS
20        
ITEM: BOX BOUNDS xy xz yz pp pp pp
    0.0000000000000000      4.0300551752093021      0.0000000000000002
    0.0000000000000000      4.0300551752093021      0.0000000000000023
    0.0000000000000000     37.6992317375989074      0.0000000000000023
ITEM: ATOMS id type x y z
1      1          0.0000000000000000     0.0000000000000000     0.0000000000000000
2      1          2.0150275876046497     2.0150275876046497     1.7099617531540114
3      1          0.0000000000000002     0.0000000000000002     3.4199235063080229
4      1          2.0150275876046502     2.0150275876046502     5.1298852594620339
5      1          0.0000000000000004     0.0000000000000004     6.8398470126160458
6      1          2.0150275876046502     2.0150275876046502     8.5498087657700559
7      1          0.0000000000000006     0.0000000000000006    10.2597705189240678
8      1          2.0150275876046506     2.0150275876046506    11.9697322720780797
9      1          0.0000000000000008     0.0000000000000008    13.6796940252320915
10     1          2.0150275876046506     2.0150275876046506    15.3896557783860999
11     1          0.0000000000000010     0.0000000000000010    17.0996175315401118
12     1          2.0150275876046511     2.0150275876046511    18.8095792846941237
13     1          0.0000000000000013     0.0000000000000013    20.5195410378481355
14     1          2.0150275876046511     2.0150275876046511    22.2295027910021474
15     1          0.0000000000000015     0.0000000000000015    23.9394645441561593
16     1          2.0150275876046515     2.0150275876046515    25.6494300672333431
17     1          0.0000000000000017     0.0000000000000017    27.3593918203873514
18     1          2.0150275876046515     2.0150275876046515    29.0693535735413633
19     1          0.0000000000000019     0.0000000000000019    30.7793153266953752
20     1          2.0150275876046515     2.0150275876046515    32.4892770798493871
ITEM: TIMESTEP energy, energy_weight, force_weight, nsims
9        -120289.0825342108582845    1    1   21
ITEM: NUMBER OF ATOMS
20        
ITEM: BOX BOUNDS xy xz yz pp pp pp
    0.0000000000000000      4.0300551752093021      0.0000000000000002
    0.0000000000000000      4.0300551752093021      0.0000000000000023
    0.0000000000000000     38.1992326230767674      0.0000000000000023
ITEM: ATOMS id type x y z
1      1          0.0000000000000000     0.0000000000000000     0.0000000000000000
2      1          2.0150275876046497     2.0150275876046497     1.7099619089091953
3      1          0.0000000000000002     0.0000000000000002     3.4199238178183906
4      1          2.0150275876046502     2.0150275876046502     5.1298857267275855
5      1          0.0000000000000004     0.0000000000000004     6.8398476356367812
6      1          2.0150275876046502     2.0150275876046502     8.5498095445459761
7      1          0.0000000000000006     0.0000000000000006    10.2597714534551709
8      1          2.0150275876046506     2.0150275876046506    11.9697333623643676
9      1          0.0000000000000008     0.0000000000000008    13.6796952712735624
10     1          2.0150275876046506     2.0150275876046506    15.3896571801827573
11     1          0.0000000000000010     0.0000000000000010    17.0996190890919522
12     1          2.0150275876046511     2.0150275876046511    18.8095809980011488
13     1          0.0000000000000013     0.0000000000000013    20.5195429069103419
14     1          2.0150275876046511     2.0150275876046511    22.2295048158195385
15     1          0.0000000000000015     0.0000000000000015    23.9394667247287352
16     1          2.0150275876046515     2.0150275876046515    25.6494286336379318
17     1          0.0000000000000017     0.0000000000000017    27.3593905425471249
18     1          2.0150275876046515     2.0150275876046515    29.0693524514563215
19     1          0.0000000000000019     0.0000000000000019    30.7793143603655146
20     1          2.0150275876046515     2.0150275876046515    32.4892762692747112
ITEM: TIMESTEP energy, energy_weight, force_weight, nsims
10       -120289.0772795541997766    1    1   21
ITEM: NUMBER OF ATOMS
20        
ITEM: BOX BOUNDS xy xz yz pp pp pp
    0.0000000000000000      4.0300551752093021      0.0000000000000002
    0.0000000000000000      4.0300551752093021      0.0000000000000024
    0.0000000000000000     38.6992335085546344      0.0000000000000024
ITEM: ATOMS id type x y z
1      1          0.0000000000000000     0.0000000000000000     0.0000000000000000
2      1          2.0150275876046497     2.0150275876046497     1.7099604618856443
3      1          0.0000000000000002     0.0000000000000002     3.4199247936946393
4      1          2.0150275876046502     2.0150275876046502     5.1298852555802839
5      1          0.0000000000000004     0.0000000000000004     6.8398495873892786
6      1          2.0150275876046502     2.0150275876046502     8.5498100492749227
7      1          0.0000000000000006     0.0000000000000006    10.2597705111605677
8      1          2.0150275876046506     2.0150275876046506    11.9697348429695634
9      1          0.0000000000000008     0.0000000000000008    13.6796953048552066
10     1          2.0150275876046506     2.0150275876046506    15.3896596366642022
11     1          0.0000000000000010     0.0000000000000010    17.0996200985498454
12     1          2.0150275876046511     2.0150275876046511    18.8095805604354886
13     1          0.0000000000000013     0.0000000000000013    20.5195448922444825
14     1          2.0150275876046511     2.0150275876046511    22.2295053541301293
15     1          0.0000000000000015     0.0000000000000015    23.9394696859391267
16     1          2.0150275876046515     2.0150275876046515    25.6494301478247699
17     1          0.0000000000000017     0.0000000000000017    27.3593944796337638
18     1          2.0150275876046515     2.0150275876046515    29.0693549415194070
19     1          0.0000000000000019     0.0000000000000019    30.7793154034050502
20     1          2.0150275876046515     2.0150275876046515    32.4892797352140477
ITEM: TIMESTEP energy, energy_weight, force_weight, nsims
11       -120289.0746105244179489    1    1   21
ITEM: NUMBER OF ATOMS
20        
ITEM: BOX BOUNDS xy xz yz pp pp pp
    0.0000000000000000      4.0300551752093021      0.0000000000000002
    0.0000000000000000      4.0300551752093021      0.0000000000000024
    0.0000000000000000     39.1992303639773283      0.0000000000000024
ITEM: ATOMS id type x y z
1      1          0.0000000000000000     0.0000000000000000     0.0000000000000000
2      1          2.0150275876046497     2.0150275876046497     1.7099605867065284
3      1          0.0000000000000002     0.0000000000000002     3.4199250933360927
4      1          2.0150275876046502     2.0150275876046502     5.1298856800426211
5      1          0.0000000000000004     0.0000000000000004     6.8398462667491495
6      1          2.0150275876046502     2.0150275876046502     8.5498107733787130
7      1          0.0000000000000006     0.0000000000000006    10.2597713600852423
8      1          2.0150275876046506     2.0150275876046506    11.9697319467917715
9      1          0.0000000000000008     0.0000000000000008    13.6796964534213341
10     1          2.0150275876046506     2.0150275876046506    15.3896570401278616
11     1          0.0000000000000010     0.0000000000000010    17.0996176268343909
12     1          2.0150275876046511     2.0150275876046511    18.8095821334639552
13     1          0.0000000000000013     0.0000000000000013    20.5195427201704845
14     1          2.0150275876046511     2.0150275876046511    22.2295033068770138
15     1          0.0000000000000015     0.0000000000000015    23.9394678135065782
16     1          2.0150275876046515     2.0150275876046515    25.6494284002131039
17     1          0.0000000000000017     0.0000000000000017    27.3593929068426682
18     1          2.0150275876046515     2.0150275876046515    29.0693534935491975
19     1          0.0000000000000019     0.0000000000000019    30.7793140802557232
20     1          2.0150275876046515     2.0150275876046515    32.4892785868852911
ITEM: TIMESTEP energy, energy_weight, force_weight, nsims
12       -120289.0732204302476021    1    1   21
ITEM: NUMBER OF ATOMS
20        
ITEM: BOX BOUNDS xy xz yz pp pp pp
    0.0000000000000000      4.0300551752093021      0.0000000000000002
    0.0000000000000000      4.0300551752093021      0.0000000000000024
    0.0000000000000000     39.6992312494551882      0.0000000000000024
ITEM: ATOMS id type x y z
1      1          0.0000000000000000     0.0000000000000000     0.0000000000000000
2      1          2.0150275876046497     2.0150275876046497     1.7099610176846582
3      1          0.0000000000000002     0.0000000000000002     3.4199260052924414
4      1          2.0150275876046502     2.0150275876046502     5.1298870229771003
5      1          0.0000000000000004     0.0000000000000004     6.8398480406617583
6      1          2.0150275876046502     2.0150275876046502     8.5498090583464172
7      1          0.0000000000000006     0.0000000000000006    10.2597740459542006
8      1          2.0150275876046506     2.0150275876046506    11.9697350636388595
9      1          0.0000000000000008     0.0000000000000008    13.6796960813235167
10     1          2.0150275876046506     2.0150275876046506    15.3896570990081756
11     1          0.0000000000000010     0.0000000000000010    17.0996220866159589
12     1          2.0150275876046511     2.0150275876046511    18.8095831043006179
13     1          0.0000000000000013     0.0000000000000013    20.5195441219852768
14     1          2.0150275876046511     2.0150275876046511    22.2295051396699321
15     1          0.0000000000000015     0.0000000000000015    23.9394701272777191
16     1          2.0150275876046515     2.0150275876046515    25.6494311449623744
17     1          0.0000000000000017     0.0000000000000017    27.3593921626470333
18     1          2.0150275876046515     2.0150275876046515    29.0693531803316958
19     1          0.0000000000000019     0.0000000000000019    30.7793181679394756
20     1          2.0150275876046515     2.0150275876046515    32.4892791856241345
ITEM: TIMESTEP energy, energy_weight, force_weight, nsims
13       -120289.0724868109973613    1    1   21
ITEM: NUMBER OF ATOMS
20        
ITEM: BOX BOUNDS xy xz yz pp pp pp
    0.0000000000000000      4.0300551752093021      0.0000000000000002
    0.0000000000000000      4.0300551752093021      0.0000000000000025
    0.0000000000000000     40.1992281048778821      0.0000000000000025
ITEM: ATOMS id type x y z
1      1          0.0000000000000000     0.0000000000000000     0.0000000000000000
2      1          2.0150275876046497     2.0150275876046497     1.7099626057428112
3      1          0.0000000000000002     0.0000000000000002     3.4199252114856225
4      1          2.0150275876046502     2.0150275876046502     5.1298837973056237
5      1          0.0000000000000004     0.0000000000000004     6.8398464030484361
6      1          2.0150275876046502     2.0150275876046502     8.5498090087912466
7      1          0.0000000000000006     0.0000000000000006    10.2597716145340581
8      1          2.0150275876046506     2.0150275876046506    11.9697342202768695
9      1          0.0000000000000008     0.0000000000000008    13.6796968260196810
10     1          2.0150275876046506     2.0150275876046506    15.3896554118396836
11     1          0.0000000000000010     0.0000000000000010    17.0996180175824932
12     1          2.0150275876046511     2.0150275876046511    18.8095806233253064
13     1          0.0000000000000013     0.0000000000000013    20.5195432290681161
14     1          2.0150275876046511     2.0150275876046511    22.2295058348109293
15     1          0.0000000000000015     0.0000000000000015    23.9394684405537390
16     1          2.0150275876046515     2.0150275876046515    25.6494270263737398
17     1          0.0000000000000017     0.0000000000000017    27.3593896321165531
18     1          2.0150275876046515     2.0150275876046515    29.0693522378593663
19     1          0.0000000000000019     0.0000000000000019    30.7793148436021760
20     1          2.0150275876046515     2.0150275876046515    32.4892774493449892
ITEM: TIMESTEP energy, energy_weight, force_weight, nsims
14       -120289.0720861231820891    1    1   21
ITEM: NUMBER OF ATOMS
20        
ITEM: BOX BOUNDS xy xz yz pp pp pp
    0.0000000000000000      4.0300551752093021      0.0000000000000002
    0.0000000000000000      4.0300551752093021      0.0000000000000025
    0.0000000000000000     40.6992289903557563      0.0000000000000025
ITEM: ATOMS id type x y z
1      1          0.0000000000000000     0.0000000000000000     0.0000000000000000
2      1          2.0150275876046497     2.0150275876046497     1.7099618263382008
3      1          0.0000000000000002     0.0000000000000002     3.4199236526764016
4      1          2.0150275876046502     2.0150275876046502     5.1298854790146029
5      1          0.0000000000000004     0.0000000000000004     6.8398473053528033
6      1          2.0150275876046502     2.0150275876046502     8.5498091316910045
7      1          0.0000000000000006     0.0000000000000006    10.2597709580292058
8      1          2.0150275876046506     2.0150275876046506    11.9697327843674053
9      1          0.0000000000000008     0.0000000000000008    13.6796946107056066
10     1          2.0150275876046506     2.0150275876046506    15.3896564370438096
11     1          0.0000000000000010     0.0000000000000010    17.0996182633820091
12     1          2.0150275876046511     2.0150275876046511    18.8095800897202103
13     1          0.0000000000000013     0.0000000000000013    20.5195419160584116
14     1          2.0150275876046511     2.0150275876046511    22.2295078123195111
15     1          0.0000000000000015     0.0000000000000015    23.9394696386577124
16     1          2.0150275876046515     2.0150275876046515    25.6494314649959136
17     1          0.0000000000000017     0.0000000000000017    27.3593932913341149
18     1          2.0150275876046515     2.0150275876046515    29.0693551176723126
19     1          0.0000000000000019     0.0000000000000019    30.7793169440105139
20     1          2.0150275876046515     2.0150275876046515    32.4892787703487187
ITEM: TIMESTEP energy, energy_weight, force_weight, nsims
15       -120289.0718534657644341    1    1   21
ITEM: NUMBER OF ATOMS
20        
ITEM: BOX BOUNDS xy xz yz pp pp pp
    0.0000000000000000      4.0300551752093021      0.0000000000000002
    0.0000000000000000      4.0300551752093021      0.0000000000000025
    0.0000000000000000     41.1992258457784502      0.0000000000000025
ITEM: ATOMS id type x y z
1      1          0.0000000000000000     0.0000000000000000     0.0000000000000000
2      1          2.0150275876046497     2.0150275876046497     1.7099615089612807
3      1          0.0000000000000002     0.0000000000000002     3.4199230179225615
4      1          2.0150275876046502     2.0150275876046502     5.1298845268838429
5      1          0.0000000000000004     0.0000000000000004     6.8398460358451230
6      1          2.0150275876046502     2.0150275876046502     8.5498075448064039