ITEM: TIMESTEP energy, energy_weight, force_weight, nsims
1        -384922.9241058524930850    1    1   270
ITEM: NUMBER OF ATOMS
64        
ITEM: BOX BOUNDS xy xz yz pp pp pp
   -0.1684524310529158      7.8989229603731994     -0.0275751400546622
   -0.1413749231447533      7.8988755668354385     -0.1408772909982536
    0.0000000000000000     40.3589149521900268     -0.1413749231447533
ITEM: ATOMS id type x y z
1      1          0.0094377199061353    -0.0575086028817812     6.4980355325752974
2      1          1.9347257435099685     1.9817482217460545     8.2202997615705691
3      1         -0.0172242664717045    -0.0609609782759069     9.7759583537517063
4      1          1.8958914819685497     1.9754033745178088    11.8222279878746530
5      1         -0.0103408171015755    -0.0082638258029362    13.4192988626882315
6      1          1.9319343281707615     1.9242649473436857    14.8297137917394259
7      1         -0.0166187322745186    -0.0994740901398466    16.9082261630176802
8      1          1.8626536349228553     1.9204264544229948    18.3227173424790450
9      1         -0.0713166429529562    -0.1082288049936073    20.1378433988878101
10     1          1.8722299224393699     1.9376365618951985    21.8771471617758984
11     1         -0.0599999703542706    -0.0975189970258686    23.6224603671003628
12     1          1.8536033200661486     1.8616267527380865    25.2217994129342564
13     1         -0.0496842276253352    -0.0844685999064259    26.9719637598359760
14     1          1.8558285125726994     1.8503675082595714    28.8306370854781555
15     1         -0.0825361296063890    -0.0706612854074063    30.6231177547072484
16     1          1.8117492745533470     1.8819455611568028    32.3300778831526472
17     1         -0.0115935701100460     3.9326189304592201     6.3198186359294164
18     1          1.9256626750490904     5.8862862596000856     8.0212374853518824
19     1         -0.0258358427971530     3.9479019493081982     9.8464451987157044
20     1          1.8995246951485323     5.9084662365959444    11.5603632040988629
21     1         -0.0150481281456228     3.8740151478252765    13.4389738337274256
22     1          1.8653426862521136     5.9060432549810580    14.9683466646001992
23     1         -0.0585868982959087     3.9081354524627092    16.7274666547298096
24     1          1.8721671704490743     5.8799341764370814    18.4844920171734017
25     1         -0.0945813999766371     3.8861294684615535    20.0225097276289361
26     1          1.8456425453865357     5.8571218963675875    21.9718291762537348
27     1         -0.0780973412817084     3.8966029603937269    23.6318639942842239
28     1          1.8575254525398801     5.8790278330228514    25.4606555792957998
29     1         -0.1493714412525070     3.8679903617563238    26.8400910052296950
30     1          1.8202021476167873     5.7959531693672437    28.5715005643531335
31     1         -0.1305070830398908     3.8529193094370529    30.5801112949341949
32     1          1.8096250049638127     5.8280959682750009    32.2251850631919083
33     1          3.9354484341577045    -0.0121937687854041     6.4838937687760501
34     1          5.8464125532238151     1.9075339187244171     8.0366424831891337
35     1          3.9569292004725809    -0.0581835835486511     9.9454859760083796
36     1          5.8366335218273395     1.9290982622903683    11.7447509788409334
37     1          3.9409776530450329    -0.0771067341494446    13.4743928174894663
38     1          5.8500986380081414     1.9340898161348075    15.0609986256559427
39     1          3.8963366825569508    -0.0644320309972277    16.9791771355036296
40     1          5.8284398452162396     1.9389809403475999    18.3369156087592238
41     1          3.8939084832073960    -0.0536048098951492    20.0061240081583485
42     1          5.8830208475370611     1.9151392783914858    21.8299353030648255
43     1          3.8841008226133096    -0.0478723448037533    23.6500133983382241
44     1          5.8296880348557787     1.8627942225737797    25.4256401846832816
45     1          3.9014615636616963    -0.1413175498517999    27.0980006153401689
46     1          5.7738795372939524     1.8825925157625427    28.6696453737338679
47     1          3.8723585784618737    -0.1450278060520764    30.6657892354861943
48     1          5.7911265365333939     1.8952877406831206    32.1358748202942053
49     1          3.8793477424829210     3.9595998527529108     6.6770152127137754
50     1          5.8480228756136690     5.8967230468138867     8.2020817473611505
51     1          3.8790053760985290     3.9165214970810189     9.9217024674270533
52     1          5.8692832097400025     5.9252459113941924    11.5170419447891828
53     1          3.8620010597598955     3.8749602804883874    13.4947740695403215
54     1          5.8445931811466476     5.8635749923049660    15.0247078893309318
55     1          3.8505601264355476     3.9288959598271118    16.5649170888683699
56     1          5.8735492268635374     5.8455061918829818    18.3703771851460864
57     1          3.8264414264312245     3.8827367016908099    20.3693744221855368
58     1          5.8616568440421473     5.8357206526507692    22.0618093771396389
59     1          3.8539127938602169     3.8403456068585329    23.7545268444984146
60     1          5.8232383091455402     5.8120510106995393    25.5397711602765796
61     1          3.8158753243666959     3.8172010728206716    26.9718668984400871
62     1          5.7662846293545744     5.8510325061436053    28.7564937228194850
63     1          3.8070337664813882     3.8147645258387790    30.4303998999190419
64     1          5.8172941727672205     5.8209197977876217    32.2321873349361070
ITEM: TIMESTEP energy, energy_weight, force_weight, nsims
2        -384922.2322581466869451    1    1   270
ITEM: NUMBER OF ATOMS
64        
ITEM: BOX BOUNDS xy xz yz pp pp pp
   -0.1347635246269278      7.8989229603731994     -0.0220616918283215
   -0.1130177897170196      7.8988913646813570     -0.1127018327986062
    0.0000000000000000     40.3590966274181184     -0.1130177897170196
ITEM: ATOMS id type x y z
1      1         -0.0324036466994509    -0.0098046514677886     6.6977252703389070
2      1          1.9038960483125993     1.9431694069015915     8.4313341223310019
3      1         -0.0509946909406303    -0.0289539070953473    10.0772265137130645
4      1          1.9149462796497452     1.9349992536124512    11.4279082569042174
5      1         -0.0699677920008335    -0.0091822129072190    13.4598475152565236
6      1          1.9400710461910502     1.9697065685043191    15.0552264612997106
7      1         -0.0422175325002834    -0.0702820478790793    16.5881497053119666
8      1          1.9433581128828075     1.9152625261616332    18.5614391244453110
9      1         -0.0277682003132123    -0.0169160335625005    20.3689374105428840
10     1          1.8687640498799065     1.8802858497566604    21.6765035308069649
11     1         -0.0386484760234604    -0.0887140592985963    23.7914170559155771
12     1          1.8648509964053195     1.8741684551351334    25.3348780600572532
13     1         -0.0930335387371590    -0.0778751870734606    26.7791242969597505
14     1          1.8976906643804634     1.9062832508570402    28.6657748433630140
15     1         -0.1096231448849254    -0.1179123130512124    30.4288660154414359
16     1          1.8386019840729952     1.9052241476203271    32.2314041685634933
17     1         -0.0611333499242553     3.9271205492040950     6.3609124653444518
18     1          1.9756704380343806     5.9318336595840684     8.1295933723057736
19     1         -0.0322942406338052     3.8923758825077677    10.0960499963800920
20     1          1.9662702485052364     5.9188735519392317    11.5078354118651554
21     1         -0.0532852426499853     3.9391791049861409    13.5486455996561688
22     1          1.9479412483610619     5.8646482583595168    14.8707732819834213
23     1         -0.0174041819161252     3.9242742794089223    16.5500426462763599
24     1          1.8882851956898881     5.8611635094997805    18.4668293301313149
25     1         -0.0751874619386124     3.9182602846873773    20.3444031157030771
26     1          1.9237667444565520     5.8637033000256356    21.9367793449571806
27     1         -0.0837070656593061     3.8992325339010230    23.7941897258538830
28     1          1.9034138137957071     5.8201236248288639    25.2118917849045197
29     1         -0.0610730062334223     3.9063151400866887    27.0203707970501412
30     1          1.8520458427047106     5.8045495679927877    28.6062855349341980
31     1         -0.1112346868511053     3.8209095442877365    30.3145609819732620
32     1          1.8813805811857027     5.8424599892923457    32.1009918196313251
33     1          3.9311603011889060    -0.0292605130317940     6.4295108218820740
34     1          5.8835452882773778     1.9927823431713683     8.1475693139436238
35     1          3.9601881463121815     0.0194886124606916     9.7144103427615658
36     1          5.8524872048806218     1.9884911515097417    11.8493904107133314
37     1          3.9179005153145599     0.0015102633243286    13.2080471113980611
38     1          5.9236965622693463     1.9582991305596256    14.9378339569395386
39     1          3.8958258979872840    -0.0287681692521273    16.7346612978888203
40     1          5.8498100649589402     1.8893292340880934    18.4250738087605903
41     1          3.8947808140197049    -0.1015774667108536    20.2421210571202046
42     1          5.8370024596790904     1.8814775674991053    21.8827788736696967
43     1          3.8493248662128261    -0.0766691227352530    23.6348964073751269
44     1          5.8878929179347095     1.9481455817942122    25.4296331471191088
45     1          3.9119346580955754    -0.0899006776733139    26.8677730527018710
46     1          5.8779299676258185     1.8734130880044957    28.4899423670863392
47     1          3.8644688529331424    -0.1070659737656706    30.5658205739369180
48     1          5.7890575531936550     1.9249154031264883    32.2657780111610677
49     1          3.9283746724821764     3.9239970795417980     6.6653572748437178
50     1          5.9198079386350351     5.8615194955878698     8.2519460096414541
51     1          3.9519109402748258     3.9181163038337186     9.9413656867361873
52     1          5.8473889870042344     5.9154250572401414    11.7935172773423336
53     1          3.9155562965232380     3.8901472859919628    13.3972586282067230
54     1          5.8548033200149545     5.9255579640250655    15.0358662026475383
55     1          3.9293130704745973     3.9335440967588373    16.7577628447983535
56     1          5.9009304926637904     5.9173610641391763    18.5595947137294353
57     1          3.9244142896975487     3.8920594377013171    19.9854049152925271
58     1          5.8336108633446848     5.9034332153569942    21.7449444868677340
59     1          3.8520430422817880     3.9142962989962466    23.6772048483696445
60     1          5.7990403000707920     5.8218291302048470    25.4778380521308918
61     1          3.8680461686193901     3.9101756341713418    26.9607442676927960
62     1          5.7925447517147726     5.8802684678725905    28.7165304432816519
63     1          3.8657828113535992     3.8192602211924656    30.4618151819280598
64     1          5.8057255430245833     5.8573464288025141    32.1945724569813194
ITEM: TIMESTEP energy, energy_weight, force_weight, nsims
3        -384922.8089181078830734    1    1   270
ITEM: NUMBER OF ATOMS
64        
ITEM: BOX BOUNDS xy xz yz pp pp pp
   -0.1010667192779688      7.8989229603731994     -0.0165403446790203
   -0.0847080498270409      7.8989071625272782     -0.0845263745989485
    0.0000000000000000     40.3592309091084545     -0.0847080498270409
ITEM: ATOMS id type x y z
1      1         -0.0207533084495233     0.0233834981652339     6.6893447629532723
2      1          1.9151105851043810     1.9965758786405912     8.4316527612994836
3      1         -0.0363214525547165     0.0017634004386150    10.1532161149584130
4      1          1.9136511840224080     1.9405152292903474    11.6684630802099818
5      1         -0.0706556361530005     0.0041527956182243    13.3446263350192567
6      1          1.9491905580576094     1.9228345783818013    15.0896827969903775
7      1         -0.0183216715408274    -0.0170044149701147    16.5879546697215723
8      1          1.9472461097905089     1.9728286331014615    18.6779856938113937
9      1         -0.0606787468983317     0.0022022011857401    20.2921087388671886
10     1          1.9698355204500937     1.9475027580613573    21.9312948663175327
11     1         -0.0875142244467684    -0.0440978817168828    23.6919299914195740
12     1          1.9600983748430181     1.9450967162554809    25.3872800246030330
13     1         -0.0488742727735101    -0.0405038229150743    26.9566890777346302
14     1          1.9313654994668354     1.8714683365838416    28.9480135307900390
15     1         -0.0456190018627911    -0.0324809333288476    30.2771882978582525
16     1          1.8811950502658328     1.9407992711998010    31.9501793171180708
17     1          0.0029293148081311     3.9155322246739996     6.7122365187249180
18     1          1.9153993713391932     5.8891492869871733     8.3820431946660072
19     1         -0.0380040167356642     3.9340862501798637     9.7130704504329497
20     1          1.9336617971781858     5.9096699228654455    11.6998625618572678
21     1         -0.0551607858308897     3.9584921400593069    13.3098649294372411
22     1          1.9708293607015730     5.8475210904441202    15.2662100370637273
23     1         -0.0866687127401592     3.9499217536249849    16.7455453586523717
24     1          1.8904432513410245     5.8446439192487372    18.2790306603517649
25     1         -0.0613810402777590     3.8951969408997846    20.3146049741759214
26     1          1.9544577628630511     5.8487374600300193    21.9478542587595413
27     1         -0.0742894451258331     3.8918127411128887    23.4372793880754600
28     1          1.9381214990862441     5.8699176117272964    25.4184898178650514
29     1         -0.0733115944816372     3.9194278168629508    27.2467750858169353
30     1          1.9055424855482195     5.8633427296680658    28.8183029985712551
31     1         -0.1086048074232521     3.9205165753721074    30.6423909065085915
32     1          1.9105118965212291     5.8696923653324156    32.0930146712284952
33     1          3.9325100433370146    -0.0079347678430657     6.5940767983923205
34     1          5.9302450389060608     1.9570449640775962     8.0060283480551160
35     1          3.9748679216263576    -0.0201725484777554     9.7406923080671444
36     1          5.9038904729399926     1.9685578170828602    11.6741618036143482
37     1          3.9387339190569652    -0.0183757218177169    13.3397549758485283
38     1          5.8760199574487633     1.9258471212714856    15.1141929579214782
39     1          3.8876246599647244    -0.0145197282692235    16.5978870764483055
40     1          5.8999286231342181     1.9293962837026164    18.2336224896559251
41     1          3.9137286152783277    -0.0020639144413124    19.9740578196879568
42     1          5.8330650489608642     1.9667340134065912    21.9325258228602600
43     1          3.8704924745570968    -0.0448686831186554    23.6715445438873786
44     1          5.8336261751351230     1.9326807374117017    25.3901414940744949
45     1          3.8764826350890380    -0.0419802787006327    26.9465992700073471
46     1          5.8736365458304709     1.8868219645307569    28.8442701277381772
47     1          3.9142152182953551    -0.0885472408008312    30.5450807648636413
48     1          5.8188766488683230     1.8835178627531799    32.0571151353348469
49     1          3.8885665894787134     3.9465315268461256     6.5530233887115763
50     1          5.8898867376891264     5.8884952078609807     8.2763141174534169
51     1          3.9439840078489605     3.9448199553753507    10.1534501984976870
52     1          5.9211666940008474     5.8568291445606482    11.8719704661460703
53     1          3.8802845722737329     3.9146638338452511    13.3785644122907250
54     1          5.9080664442327810     5.9256936079936615    14.9902578316457884
55     1          3.9180695443148590     3.9181926682543824    16.6488083180863278
56     1          5.8272989989104982     5.9146090075011637    18.4379774194411077
57     1          3.8946873604940713     3.8714420461352872    20.3430743756592065
58     1          5.9046432097577215     5.8500621708704132    21.7276623667656281
59     1          3.8949597456611733     3.8803891940983903    23.8167045896981726
60     1          5.8589502997644214     5.8515103227486476    25.0736040460543563
61     1          3.8904741736982698     3.9176037090623508    26.9857114006813674
62     1          5.8151482038062960     5.8323819763742746    28.5440418449284117
63     1          3.9208383736032975     3.8536897131169923    30.4589864534883326
64     1          5.8731561276882926     5.8274817102561061    32.1128108739894103
ITEM: TIMESTEP energy, energy_weight, force_weight, nsims
4        -384922.5502305214758962    1    1   270
ITEM: NUMBER OF ATOMS
64        
ITEM: BOX BOUNDS xy xz yz pp pp pp
   -0.0673778128519804      7.8989229603731994     -0.0110268964526804
   -0.0564299056289001      7.8989150614502393     -0.0563509163993000
    0.0000000000000000     40.3593256961839728     -0.0564299056289001
ITEM: ATOMS id type x y z
1      1         -0.0495989154793096    -0.0422368416567959     6.5678183641125241
2      1          1.9227734858288374     1.9665698699833543     8.3673963016471014
3      1          0.0232449385335568    -0.0562738863545670     9.6816815992130536
4      1          1.9857767508763509     1.9468794658910409    11.7762337404633328
5      1         -0.0044930566932002     0.0029446386807599    13.3015579520946297
6      1          1.9545731981694807     1.9691455352411427    15.1682615201271016
7      1         -0.0540557059122931    -0.0023725245051291    16.6734060689103067
8      1          1.9686257673543566     1.9293081904255964    18.3595743012386095
9      1         -0.0625929365890531    -0.0591945917711091    20.0712617352046045
10     1          1.9254631179501043     1.9493253317276138    21.7002690545494019
11     1         -0.0348987653246392    -0.0173709602515257    23.8356930849322026
12     1          1.9188139787796326     1.9610725605883825    25.1763693455708903
13     1         -0.0115341577496220    -0.0314242192335452    27.0701863086060612
14     1          1.9344956775216826     1.8933727619121126    28.5494645655505828
15     1         -0.0145756773658307    -0.0115461624829711    30.3928485151957943
16     1          1.8808869320940114     1.8918497351810497    32.1979274288227657
17     1         -0.0083967931883130     3.9660966357445515     6.4131654639773172
18     1          1.9604178020584460     5.9384430581483221     8.2769228012339671
19     1          0.0164423611447637     3.9434664261225967     9.8659461366115515
20     1          1.9407042054502750     5.8605178351443667    11.7355232886335905
21     1          0.0055618197803087     3.9171707647828717    13.5178395425679110
22     1          1.9008585594899221     5.8932876546870663    15.2339221071022219
23     1         -0.0057855994099652     3.9405108274176683    16.8580782354983363
24     1          1.9130920743412834     5.8754139569520891    18.3123014230506698
25     1         -0.0515262421839709     3.9057161346044689    20.1928966709877677
26     1          1.9082914065705294     5.8915394691159433    22.0421206150612186
27     1         -0.0245381013805436     3.9548059894121854    23.5059331783989620
28     1          1.9399287864961188     5.8481832140404109    25.0831191235498601
29     1         -0.0837395064308463     3.9154383401783894    27.1578790514787265
30     1          1.8803079603775796     5.9298031213553131    28.5905301794464499
31     1         -0.0471147748973118     3.8622634260500215    30.2872281598488833
32     1          1.9442983159347376     5.8536416735322563    32.1322143747242350
33     1          3.9491429699792535    -0.0516933801979087     6.4288127745497272
34     1          5.8936610496996185     1.9319039470433810     8.2651096266026922
35     1          3.9065219789894829    -0.0040232360754484     9.7883714766909176
36     1          5.8624656060065226     1.9595711454258613    11.6928352298447358
37     1          3.8905403797161653     0.0131440117025412    13.4747842139152212
38     1          5.8575637372379594     2.0006121390858151    15.1656543076871273
39     1          3.9667270129493941    -0.0401280498796280    16.7888619919293802
40     1          5.8975926059407335     1.9061327090489684    18.5211932209889767
41     1          3.8975479087180895     0.0021226273663291    20.1676438408996610
42     1          5.9163467599915869     1.9022249098170814    21.6923465189152402
43     1          3.9173168150887849     0.0102218804695831    23.8320526737544114
44     1          5.8683491812319204     1.9561876325040315    25.3358532569919284
45     1          3.8692222459454011    -0.0826968083890278    27.1616647562290296
46     1          5.9040547701039170     1.9087145051750867    28.8909165687380067
47     1          3.9415327562139177    -0.0735040578185773    30.4004683558872344
48     1          5.8877352443423359     1.9350258136342751    32.2257390401600006
49     1          3.9357056695926236     3.9851363036225473     6.6938524663965673
50     1          5.9519280410279540     5.9076310345935976     8.0412969859545047
51     1          3.9002617368170074     3.9402442244762335     9.9288219301136369
52     1          5.8741165748393174     5.9505947687653435    11.6738905623629474
53     1          3.9496204946100915     3.9469826637938477    13.1168656058437545
54     1          5.9119139514343688     5.8689452433471718    14.9974447100505710
55     1          3.9627623115494930     3.9564267156409265    16.9442534677248275
56     1          5.9311788706543425     5.9424234219607932    18.6847332446424836
57     1          3.9147289580053362     3.9409983188589450    20.2233316384952602
58     1          5.8530302004303127     5.8809251776505604    21.9679199947687849
59     1          3.8740724457024740     3.9445103524548344    23.4524005687955430
60     1          5.8521754989137298     5.9132713070359939    25.1315301347224320
61     1          3.9177797415858184     3.9079720476717084    27.1122891571723201
62     1          5.8319386833674844     5.8596949950346566    28.6010679993857231
63     1          3.9443453796367844     3.9075804625896589    30.4803152458445652
64     1          5.8328254872460032     5.8744554965492242    32.2518515238854349
ITEM: TIMESTEP energy, energy_weight, force_weight, nsims
5        -384922.7463751629111357    1    1   270
ITEM: NUMBER OF ATOMS
64        
ITEM: BOX BOUNDS xy xz yz pp pp pp
   -0.0336889064259859      7.8989229603731994     -0.0055134482263398
   -0.0281991549685304      7.8989229603731985     -0.0281754581996461
    0.0000000000000000     40.3593888875676470     -0.0281991549685304
ITEM: ATOMS id type x y z
1      1         -0.0462210612281923     0.0351032406753708     6.5823782071678458
2      1          1.9849554433117209     1.9324920991787569     8.1543199011941638
3      1          0.0283949580917452    -0.0221714362253749     9.7664474387358329
4      1          1.9797468575146797     1.9318791241945632    11.6193752341362835
5      1         -0.0159559362152731    -0.0082125623900834    13.2429285146720233
6      1          1.9490789190651792     1.9370629248443472    15.1503495569484681
7      1         -0.0000275291864885     0.0292085254662208    16.6820408324372167
8      1          2.0038260398938501     1.9635626936314070    18.5988898279577981
9      1          0.0161331330628953    -0.0170333180249641    20.0328427713775206
10     1          2.0008234950572139     1.9746576632470272    21.9031816071440701
11     1         -0.0187793516735458    -0.0229169671432061    23.4398451593437649
12     1          2.0023391951083203     1.9225393094156085    25.1552160495987174
13     1          0.0159808983379049    -0.0659836190078043    26.9503007688455085
14     1          1.9483954679005959     1.9478058745032463    28.8312500879506004
15     1          0.0062462847574404    -0.0545565107006978    30.5683262575492876
16     1          1.9168646359852062     1.9465812281810031    32.2209826934118553
17     1          0.0130208718458947     3.9633926749241111     6.7188454088133787
18     1          1.9933991101259487     5.9594721205884484     8.3791620566868037
19     1          0.0122779236468025     3.9380787113776825    10.0780138490700768
20     1          1.9707068422531955     5.8852986781123455    11.4363413695922773
21     1         -0.0144284596022630     3.9459076281032961    13.1582464449081282
22     1          1.9245491959339875     5.9446532750467380    14.9051622335176059
23     1          0.0280748759702942     3.9255596791675700    16.7740965625508665
24     1          1.9724271120937655     5.8851263277207897    18.5542846313592555
25     1          0.0096146069350903     3.9380028097817714    20.2233592666212800
26     1          1.9740070627251505     5.9225196872532262    21.9923839284633686
27     1         -0.0209816028183928     3.9202920457713093    23.6767951315026721
28     1          1.9222643842621536     5.9108800776656478    25.2840956861333872
29     1         -0.0274035853366214     3.9159694170771875    26.9173352200021405
30     1          1.9958575344530283     5.8583488780237785    28.6567118747674243
31     1         -0.0669831313313079     3.9352048935752562    30.4976488957293803
32     1          1.9885741521054794     5.8987190843915531    32.2342326807836415
33     1          3.9538319795861017    -0.0279823267686467     6.3664918000693582
34     1          5.9376618543515853     1.9296228525778338     8.0349973679480691
35     1          3.9329674022126384    -0.0318056266434112     9.8838407931930998
36     1          5.8689077892319110     1.9946465520818744    11.4246169671204374
37     1          3.9312160816237638     0.0213559964349090    13.4094997844887924
38     1          5.8683367383010783     1.9697369860607430    14.8878319119292843
39     1          3.9178775074857919    -0.0026553291936425    16.8736551030587201
40     1          5.8864320279223490     1.9483737555315235    18.2745738866739664
41     1          3.9344033235841853    -0.0339164603205983    20.2905778288135252
42     1          5.9337566005910665     1.9916412895267974    21.6599032828075870
43     1          3.8989004543211303     0.0221039734280124    23.6599531585198903
44     1          5.9432630608600459     1.9917177183284225    25.1851223567644027
45     1          3.9169589833525769    -0.0192373778794087    27.1735487284770905
46     1          5.9279185113490831     2.0009583285196930    28.8936981703763323
47     1          3.8863825187050653    -0.0007465592154192    30.2357850728101738
48     1          5.9096928409932605     1.9134158308995159    32.2698659852324710
49     1          3.9854773368914937     3.9351719120568744     6.4207913218786921
50     1          5.9337163684222300     5.9576939962683353     8.2458711389467219
51     1          3.8962981982531009     3.9799198698948310    10.0455527925878059
52     1          5.8858826805003641     5.9123235836564803    11.5229324384505514
53     1          3.9472719586442584     3.9537230984449612    13.1261970541925113
54     1          5.8694109456955585     5.9314431638235279    15.1357192784767260
55     1          3.9381511895637966     3.9598962088794658    16.8917966483636803
56     1          5.9371356949904657     5.8685315520375836    18.6084469312463732
57     1          3.9346598043947107     3.9502903395757678    20.2301921111599476
58     1          5.9272421692925699     5.9098610371879889    21.9932799068966744
59     1          3.8905612291547609     3.9565284898841089    23.8066111058595347
60     1          5.8796798210584793     5.9360681239756348    25.1236186840386431
61     1          3.8937825194486693     3.9558413963673793    26.8938864150584678
62     1          5.8714977218213518     5.9253687299416082    28.5302941609548952
63     1          3.8966454733070552     3.9392484067807336    30.6422767658079778
64     1          5.8817203947274699     5.8890165201775702    32.2098152505066651
ITEM: TIMESTEP energy, energy_weight, force_weight, nsims
6        -384923.1709311749436893    1    1   270
ITEM: NUMBER OF ATOMS
64        
ITEM: BOX BOUNDS xy xz yz pp pp pp
    0.0000000000000000      7.8989229603732021      0.0000000000000005
    0.0000000000000000      7.8989229603732021      0.0000000000000025
    0.0000000000000000     40.3594046854135797      0.0000000000000025
ITEM: ATOMS id type x y z
1      1          0.0420886211020530     0.0188302424452341     6.5821466991561355
2      1          1.9572851788430203     1.9925775666299677     8.2808377189009761
3      1         -0.0256343746832985     0.0468769482006314     9.9227511281343759
4      1          1.9921486551132197     1.9865538479803873    11.5007110247032731
5      1          0.0389748656710743     0.0090276790514114    13.5484140324056952
6      1          1.9610782416485919     2.0012118793179519    15.2536109881858248
7      1          0.0127701887500364    -0.0148112704429948    16.8808012865899855
8      1          2.0204362780189089     1.9804361321475785    18.2864103813902901
9      1          0.0081374704337777    -0.0010315993386235    20.3579415816189844
10     1          1.9532401403950141     2.0209836733800626    21.9673697060210920
11     1          0.0182891662224495    -0.0448192787694521    23.5012248451497676