ITEM: TIMESTEP energy, energy_weight, force_weight, nsims
1        -288686.6806195913814008    1    1   500
ITEM: NUMBER OF ATOMS
48        
ITEM: BOX BOUNDS xy xz yz pp pp pp
   -2.1422661875144731      6.3836768255865994     -0.2227839375361457
   -1.9876790695060749      6.3797891663998172     -1.9194822499783273
    0.0000000000000000     54.9307475082463199     -1.9876790695060749
ITEM: ATOMS id type x y z
1      1          1.1828719191364319     1.2478665293012816     9.4605303857289851
2      1          2.8140096136821748    -0.4080901614653265    10.8360292617839775
3      1          0.9641150934125616     4.3052437222308475    12.6006081155146301
4      1          2.8347588750108934     2.9461672167456396     7.4250330852876623
5      1          4.2905669543443272     1.1231279122293356    12.2914523754634697
6      1         -0.2850483938170276    -0.2820487198341532     7.7048503130946679
7      1          4.2579068535344122     4.4582396765267340     9.4729227623668457
8      1         -0.5030646814688703     2.7694815274885380    10.8184074779833317
9      1          1.0052551233604285     0.9961936797240387    15.9626390236820956
10     1          2.6122183080448598    -0.6187986424426524    17.3777264894662800
11     1          0.7369469702512274     4.1013257517336266    19.0484067234063374
12     1          2.5527523986672294     2.7018313964552192    14.2535182526357680
13     1          4.0915568383253058     0.9001660504499019    18.9662907489562578
14     1         -0.5037737281411240    -0.5312468331030538    13.9740361023885615
15     1          4.0488316163749927     4.2146987128606037    15.8456145591905262
16     1         -0.7113444529999536     2.5399191853435994    17.6837292046104686
17     1          0.7592048329383415     0.7753020834066064    22.6825590616549064
18     1          2.3539191593588544    -0.8999347718417093    24.3122554648790583
19     1          0.5373585178428115     3.8339183037633928    25.9221438405517368
20     1          2.3656359631552859     2.4406525771136311    20.9058624850239312
21     1          3.8367304185691213     0.6824383989940460    25.9273787407892726
22     1         -0.7173904369537790    -0.7310489421993850    20.9180680971202619
23     1          3.8445834224862585     3.9406573260046525    22.5457815003593680
24     1         -0.9681682766838110     2.3423337183062061    24.0582556884009264
25     1          0.5257823822854490     0.5121843060743730    29.3839564515679328
26     1          2.0922298847254259    -1.0907694123842668    30.7186307960747982
27     1          0.3111259830956149     3.6097812183571349    32.2115716103024141
28     1          2.1063920528519859     2.2176219822538972    27.3017570295950982
29     1          3.5805843109019175     0.4178164054648807    32.6847505624132069
30     1         -0.9873288427510176    -1.0292506122723486    27.6691009104817418
31     1          3.6096661259528489     3.7121998700018497    28.9787597925733529
32     1         -1.1916604229656835     2.0775962189613715    30.6665234889884779
33     1          0.3089136215562731     0.2987835275516710    35.8754414829529509
34     1          1.9078046629343763    -1.3755802243295383    37.1968335727123147
35     1          0.0967532008726665     3.3970348479068715    38.9463504154762106
36     1          1.8957702875389348     1.9429068891238304    34.3553538933067486
37     1          3.3509965468358405     0.1845046638160681    39.1780592946154940
38     1         -1.2071881953256147    -1.2487718764725722    34.1431234572338909
39     1          3.3384662575183381     3.5168077778498068    35.8165392423998554
40     1         -1.4431375604529171     1.8365537906542695    37.5481266891770602
41     1          0.0607758975496178     0.0657015578956541    42.5702691554639898
42     1          1.6298228038165699    -1.5897460786678641    43.9609673693545133
43     1         -0.1894601053940090     3.1057143325153485    45.7786642559256407
44     1          1.6432452149075776     1.7113256491998572    40.8346552848944313
45     1          3.1523793895593339    -0.0839145115678563    45.7781259346000624
46     1         -1.4619075758709530    -1.4635713013116154    40.9629021011019390
47     1          3.1622375778288196     3.2166228590671482    42.5083786822464518
48     1         -1.6667274706687634     1.6163027876991742    43.8757917522682277
ITEM: TIMESTEP energy, energy_weight, force_weight, nsims
2        -288687.7995287985540926    1    1   500
ITEM: NUMBER OF ATOMS
48        
ITEM: BOX BOUNDS xy xz yz pp pp pp
   -1.7138129500115844      6.3836768255865994     -0.1782322569703770
   -1.5790726832539226      6.3811871916246199     -1.5355806930412075
    0.0000000000000000     54.9560779378902353     -1.5790726832539226
ITEM: ATOMS id type x y z
1      1          1.2901837889106680     1.3363299270755500     9.1779233091939769
2      1          2.9137042345686983    -0.3287372776993975    11.0013494883497955
3      1          1.0893869444467246     4.4170831579884844    12.6989042665966672
4      1          2.8823709108469719     2.9834498141954282     7.5558232259558284
5      1          4.4114369343894895     1.1992692285853852    12.7309766336812196
6      1         -0.2144572556379751    -0.2474410117496445     7.6713518929968609
7      1          4.3742946702163943     4.5429712416390435     9.0119944230761053
8      1         -0.3917145618651858     2.8525333882891650    10.6732891810995572
9      1          1.1331871857136546     1.1406753017512270    15.7658930641544455
10     1          2.7026536627371698    -0.5308889378213697    17.4427788614888755
11     1          0.9101865525696055     4.2185985166012285    19.0832892308362219
12     1          2.6837066854253431     2.7759304881214772    14.0351777884798476
13     1          4.2184857802211813     1.0287659578341499    19.0365490865500426
14     1         -0.3814775365351566    -0.4424772952767061    14.2906795860286877
15     1          4.2095491013038453     4.3113008343850288    15.9008102354919654
16     1         -0.5981679110407376     2.7167442163532201    17.5499102398210027
17     1          0.9123737922046596     0.9743489307414060    22.5111086449185969
18     1          2.5001277316997395    -0.7009319542899766    24.0477575225711213
19     1          0.7401651798953536     4.0441561534396717    25.6520738189885726
20     1          2.5351262334689326     2.5944865202789362    20.7946929407234400
21     1          4.0360022377311386     0.8497783974570460    25.6986930599032810
22     1         -0.5579899713834823    -0.5674007439045382    20.8527925063193820
23     1          4.0185642843554099     4.1236093232402773    22.3608147629740550
24     1         -0.7946094730794210     2.5240440346008119    24.0890899887882100
25     1          0.7330513032340455     0.7751571097235179    29.1133175196727692
26     1          2.3213656075240454    -0.8954815145594061    30.7330050310894514
27     1          0.5453209050339410     3.8813388156968380    32.4789486359606343
28     1          2.3573694768903728     2.3627931567574634    27.7462466117131967
29     1          3.8274113120877362     0.6393522273195165    32.3967178565421676
30     1         -0.7891487115763316    -0.7916138366348862    27.2415574699705836
31     1          3.8171393213016351     3.9370879540902544    29.0493706273842456
32     1         -0.9521185205662129     2.3216649153540798    31.0736997406576059
33     1          0.5280206219585811     0.5304841744870897    35.9786890692403247
34     1          2.1285829832972207    -1.0573906112129889    37.4978674097163989
35     1          0.3426478596846448     3.6310521038944192    39.2164978438524514
36     1          2.1406696334514210     2.2378268027571866    33.9944284323914871
37     1          3.6254177185547025     0.4857268630498123    39.2923317357989461
38     1         -0.9751296308792818    -0.9504488938210516    33.9190891451464296
39     1          3.6570435384596425     3.7279545943493817    35.8446017346796708
40     1         -1.1026934663586512     2.1162991579819552    37.4122788139359272
41     1          0.3382762125429725     0.3523518986503874    42.4810372547735682
42     1          1.9717795028834393    -1.2516144802192919    43.8543346863635080
43     1          0.2001320791056671     3.4917719069218833    45.7195934320456416
44     1          1.9587407686330922     2.0222199520505910    40.6790989020914608
45     1          3.4403532818222704     0.2590445379068433    45.9468533011421982
46     1         -1.1666832457023033    -1.1545798313437454    40.6966573689926179
47     1          3.4757052418379226     3.5816902701828974    42.3468949641349681
48     1         -1.3116919937788698     1.9198792449173432    44.3481700027133812
ITEM: TIMESTEP energy, energy_weight, force_weight, nsims
3        -288687.4292566645308398    1    1   500
ITEM: NUMBER OF ATOMS
48        
ITEM: BOX BOUNDS xy xz yz pp pp pp
   -1.2853597125086846      6.3836768255865994     -0.1336741927277831
   -1.1760583979009949      6.3822788003617967     -1.1516855197809015
    0.0000000000000000     54.9755609195619286     -1.1760583979009949
ITEM: ATOMS id type x y z
1      1          1.3886424617414062     1.4298188104758938     9.0330014293566681
2      1          2.9508693994878623    -0.2333354675795886    10.9916597186866376
3      1          1.2276830483590817     4.5059329853904080    12.4735864363904394
4      1          2.9787907752432128     2.9985551549808371     7.5631088619381579
5      1          4.4812138623731173     1.3344430638252525    12.6672543423978734
6      1         -0.1288998811058207    -0.1310423408272660     7.3454606162576113
7      1          4.5279405767578673     4.5650413132932259     8.9478167977118090
8      1         -0.2960427078281221     2.9405495760717613    11.0949697927666779
9      1          1.2120876889101313     1.2487225284834513    15.8073264407770431
10     1          2.8134642873360751    -0.3960541578920447    17.6620204468520292
11     1          1.1045385677732598     4.4034975307279458    19.4032943731938659
12     1          2.8033916590989745     2.9010800656537055    14.1965589985021570
13     1          4.3522642794482058     1.1514343684548014    19.3181977024464757
14     1         -0.3296724331215035    -0.3037170301846872    14.2219302198665343
15     1          4.3449992991781352     4.4806254611028384    15.7529721036958730
16     1         -0.4312051293155565     2.8410872923264221    17.5422122069400288
17     1          1.0594942518416239     1.0928763091860048    22.6843183122146996
18     1          2.6902837371702462    -0.4964802172793223    23.9913897608577429
19     1          0.9853758051551357     4.2412250781023211    25.7590464588848782
20     1          2.6643037319751182     2.7539072832450748    20.7213004609038087
21     1          4.2083022543691637     1.0286090786346325    26.0338912781461396
22     1         -0.4120004322750682    -0.4221829431863112    20.8375462844682247
23     1          4.2089962091337716     4.3009711480126809    22.5232893967252110
24     1         -0.5931118773244258     2.6480082194488341    24.0945129180306594
25     1          0.9487393759205268     0.9508935092055812    28.9905868955220143
26     1          2.5216944175845493    -0.6229042315123147    30.5928661111909257
27     1          0.8158274762480948     4.1090193742803836    32.4687312057760309
28     1          2.5460933813047384     2.6252756301545204    27.2822323350588150
29     1          4.1011739675068188     0.8762392766795093    32.4327881840468208
30     1         -0.6091081685565239    -0.6246582981907514    27.7472761024334780
31     1          4.0853374337458037     4.1839657828323160    28.9352429983442967
32     1         -0.6867991879629763     2.5265147895082252    30.9362324695823254
33     1          0.7823048204197197     0.8220069842958906    35.8073585375283869
34     1          2.4305548686627612    -0.7988112094558414    37.1890263247831854
35     1          0.6562556821336696     3.9325349695441671    39.1507467528563708
36     1          2.3805529525486109     2.4727217830837689    34.0746553011339088
37     1          3.9630532680038879     0.7410376933934850    39.1283332166694677
38     1         -0.6827912752157923    -0.7199700409784807    33.9593275694368515
39     1          3.9376603105186763     4.0293681545066580    35.6304141971526818
40     1         -0.8461412033485505     2.3990763639665489    37.6456918166737111
41     1          0.6569598664486563     0.6665333813095542    42.2895873986709461
42     1          2.2824312596548624    -0.9367425306124684    44.2072614073353805
43     1          0.5662032446806520     3.8171926668430243    45.8786833859728205
44     1          2.2902828656323160     2.3132656079344067    40.6350814001284490
45     1          3.8200849820826650     0.5987660123896618    45.5426507674080909
46     1         -0.8797300019060783    -0.8926364744045442    40.7311401977231995
47     1          3.8281129397848437     3.8909664979196359    42.5225078551749434
48     1         -0.9984746600273469     2.2727981955322334    44.2062498570144555
ITEM: TIMESTEP energy, energy_weight, force_weight, nsims
4        -288686.2790151674998924    1    1   500
ITEM: NUMBER OF ATOMS
48        
ITEM: BOX BOUNDS xy xz yz pp pp pp
   -0.8569064750057934      6.3836768255865994     -0.0891161284851884
   -0.7785851440326680      6.3830576089345179     -0.7677903465206051
    0.0000000000000000     54.9893305104747228     -0.7785851440326680
ITEM: ATOMS id type x y z
1      1          1.4450966922775961     1.4383981035525801     9.1953983319573478
2      1          3.0485495369417115    -0.1280686061287020    10.8072455878803844
3      1          1.3390084631768606     4.5966847379616746    12.3478211725287927
4      1          3.0105271485303207     3.0607886967439675     7.6356204730946819
5      1          4.5714240242914892     1.4037459645226245    12.5462226770105865
6      1         -0.1025647235079010    -0.0981113911088748     7.8171787456411170
7      1          4.5911635902463948     4.6718424331127606     9.2026184310533736
8      1         -0.1680108843827296     3.0469743791472186    11.0640072688329436
9      1          1.3609154440848024     1.3421618291853918    15.6641067190883998
10     1          2.9742077921789081    -0.2319308782331194    17.5074150649961275
11     1          1.2891486815685071     4.5126763889030608    18.9438023651263379
12     1          2.9748793960752407     2.9586638651478778    14.4393898488921586
13     1          4.4850720140460121     1.3046526491413803    19.3814899413244639
14     1         -0.1972383448225498    -0.1778509498118378    14.4380591070938049
15     1          4.5136995364534993     4.5632674529491428    15.9091061822447681
16     1         -0.2949487251023986     2.9530691842409889    17.4271801328482923
17     1          1.2322191849546322     1.2917000872335511    22.4655390483391812
18     1          2.8296092840485110    -0.3249442648241648    24.1684816291858695
19     1          1.1396084227939660     4.4352113760737986    25.9005685552031082
20     1          2.8278094468949480     2.9266699693717633    20.9022308744577430
21     1          4.3939912422738532     1.2136805194989777    25.7329830715393868
22     1         -0.2799993978771602    -0.2911817776669746    20.9936011460339458
23     1          4.4302161535501927     4.4427391294632406    22.2626339176885786
24     1         -0.3825516172291283     2.8776275049798894    23.9553154894620128
25     1          1.1629001798263350     1.2121753741668211    29.0126842165103724
26     1          2.7436457998039860    -0.4371516896656129    30.6348529697702219
27     1          1.0570720856711482     4.3107695703278086    32.2274099685501838
28     1          2.7604154156397320     2.8072355865654983    27.2683896591198085
29     1          4.3286966371080799     1.1445509654596195    32.6180816671618530
30     1         -0.3898557680089538    -0.3965805136186722    27.4946487584382062
31     1          4.2855405926735104     4.3943725099755282    29.2942845780545156
32     1         -0.4747818361907575     2.7306766735979227    30.6428429194933969
33     1          1.0814966425546064     1.0689933370084070    35.7199858097933216
34     1          2.6367230194074160    -0.5521903605940814    37.6988538532754731
35     1          0.9774110530070762     4.2327015470274532    38.9846308760705469
36     1          2.6648154153982837     2.7316861664221372    34.2702800938134757
37     1          4.2279847501747270     1.0595174931204636    39.3306897308390688
38     1         -0.4574976366934055    -0.4988986631546548    34.1586132603458523
39     1          4.2394928215966452     4.3089286774255600    35.6533112465493787
40     1         -0.5786170931455503     2.6627215592851963    37.7151691876379331
41     1          0.9800560208980938     0.9782486459174506    42.3230661249597730
42     1          2.5756713760710501    -0.6489714273434443    44.3110349026414028
43     1          0.8776181802687516     4.1410681780142822    45.6088655866843666
44     1          2.5910409103771204     2.6267710425512467    40.8936954634027003
45     1          4.0964789252033258     0.9735514857602301    45.7505345988785095
46     1         -0.5478235816852154    -0.5631630974647051    40.7609622174165125
47     1          4.1542205276699473     4.2007333166350591    42.5120974475225779
48     1         -0.6682513252236599     2.5519252067983302    43.9680939429128301
ITEM: TIMESTEP energy, energy_weight, force_weight, nsims
5        -288688.5041246352484450    1    1   500
ITEM: NUMBER OF ATOMS
48        
ITEM: BOX BOUNDS xy xz yz pp pp pp
   -0.4284532375028910      6.3836768255865994     -0.0445580642425941
   -0.3865827012038703      6.3835236173427852     -0.3838951732602969
    0.0000000000000000     54.9975016168114692     -0.3865827012038703
ITEM: ATOMS id type x y z
1      1          1.5489751268807801     1.5571863082738635     9.2869386202665627
2      1          3.0917825040723903    -0.0976091310913319    10.7835416337635603
3      1          1.4748430206937160     4.6731037086521248    12.5294923200908581
4      1          3.1353137546074543     3.1422321397373403     7.2828626598509238
5      1          4.6706294628616805     1.4939194141115533    12.3756423090679881
6      1         -0.0724045411412441    -0.0440666654951520     7.3442563709057698
7      1          4.6606311961301765     4.7390893585176750     9.2286412685527441
8      1         -0.1221450111664625     3.1277882981677108    10.7447353966227386
9      1          1.4531541387467179     1.4645108394591746    16.0139470310265324
10     1          3.0550334139900399    -0.1045537011130273    17.6790788887279291
11     1          1.4089962826285598     4.6708837886568499    19.1767103555051577
12     1          3.0552469029302483     3.1018412353010265    14.2395901351141561
13     1          4.6106805821354406     1.4910142175140948    19.4313047899896993
14     1         -0.0826610460529987    -0.1174020718325257    14.2603571917246619
15     1          4.6719319094216987     4.6843437527654075    15.8109457528087205
16     1         -0.1734414940284895     3.0752352892142159    17.6866905429516947
17     1          1.4257810953298120     1.4567411981009024    22.6214623700236608
18     1          3.0217232504867164    -0.1765934370528960    24.4143919222320349
19     1          1.3788330937014130     4.6057055458519045    26.0797822681910283
20     1          2.9930016023616322     3.0584195775439342    20.9296622237882772
21     1          4.5745487843260033     1.3899180868855390    25.9900538443032012
22     1         -0.1728120639773693    -0.1720716027016125    20.9775980461974889
23     1          4.5690028093603638     4.6180929574765912    22.7060430277601526
24     1         -0.1907873630313465     3.0236706162182991    24.0944439565762387
25     1          1.3920010526962057     1.3671107653497669    29.3839661683271238
26     1          2.9622596969411821    -0.2166905913016283    31.0835814595422555
27     1          1.3200530179783723     4.5851794058431494    32.2307193482657084
28     1          3.0034624755417156     3.0006329497419695    27.4282220123323341
29     1          4.5590178525835512     1.3444874435289136    32.3272289641028863
30     1         -0.1850679544473316    -0.1884392536863427    27.5666837224028214
31     1          4.5291788466673566     4.6038336517319962    29.1955227287872781
32     1         -0.2138136108602390     2.9983554645872630    30.5894949045171458
33     1          1.3569466054940738     1.3629153826864708    35.8784891402525048
34     1          2.9117748671555805    -0.2572807239233122    37.6354613259038189
35     1          1.2717701491228142     4.5169017863469954    39.3158109923025734
36     1          2.9609600381417716     2.9224170311705144    34.0226974436961171
37     1          4.4803350115283349     1.3053764631936635    39.3248195830674163
38     1         -0.2139899970197930    -0.2471085914106424    34.3219608489938324
39     1          4.5230881861516501     4.5371296315430945    36.0844437843071404
40     1         -0.3117837040831041     2.9356886631886758    37.3654015939646200
41     1          1.3110826739101402     1.2758888506745065    42.2017993898945960
42     1          2.8783434422305745    -0.3429145579079350    44.2925459131081709
43     1          1.2375946768047761     4.4664591963531786    45.8513621004341019
44     1          2.8602346793956026     2.8941986357751510    40.8113580537685294
45     1          4.4478404880682936     1.2737222659416223    45.8102734669761844
46     1         -0.3021948619879722    -0.2821241881748305    40.8556145433195823
47     1          4.4900561606643468     4.4982036300574988    42.2724326812210691
48     1         -0.3061402191031719     2.9028330080045106    43.8792011902067003
ITEM: TIMESTEP energy, energy_weight, force_weight, nsims
6        -288687.1046202188590541    1    1   500
ITEM: NUMBER OF ATOMS
48        
ITEM: BOX BOUNDS xy xz yz pp pp pp
    0.0000000000000000      6.3836768255866030      0.0000000000000004
    0.0000000000000000      6.3836768255866030      0.0000000000000034
    0.0000000000000000     55.0002019121086931      0.0000000000000034
ITEM: ATOMS id type x y z
1      1          1.5988588895748330     1.5987165335816225     9.4308956219096594
2      1          3.2097299438323721     0.0160600541578114    10.8134191973137632
3      1          1.5989220879754065     4.7710547287758027    12.6208028324283301
4      1          3.2083357488136635     3.2128483699616712     7.5370131692479179
5      1          4.7680531239324120     1.6093721669388916    12.6072342826166146
6      1          0.0237938786320094     0.0015774065436029     7.7731730362181306
7      1          4.7995776352002064     4.7895776054529255     9.4268201069479733
8      1         -0.0152991198802000     3.1833200344372377    11.1145673028633230
9      1          1.5723985491327768     1.5788237198577297    15.9100899077819928
10     1          3.2164110999980315     0.0147316110104073    17.3616552366463637
11     1          1.6211066416796855     4.7799912379639418    19.2745787592100797
12     1          3.2076705696884380     3.2211369359520128    14.4450220293481948
13     1          4.7748715291498218     1.6162735599550337    19.4563874266507426
14     1          0.0209378216202424    -0.0115321121854213    14.3365781312380918
15     1          4.7560301069991029     4.7685357299004263    15.6341648948293255
16     1         -0.0178864240976098     3.2031017721843655    17.5908410780141224
17     1          1.6064503580558211     1.6112419458811069    22.4528919271656768
18     1          3.2101142411772727     0.0306205826292927    24.0704918655623246
19     1          1.6045550444063050     4.7597677497804849    25.8822700168096667
20     1          3.2146051578240731     3.1830378759215474    20.9143217788965394
21     1          4.7946028358500277     1.5852827240698590    25.7432405064162424
22     1         -0.0200677264689128     0.0203211584388911    20.7076365201310253
23     1          4.7985971024397971     4.7775296921799963    22.5101581373965622
24     1          0.0058525549136995     3.1719692186736625    24.3275848093802836
25     1          1.6116026236217527     1.6221752691802891    29.3451817295594743
26     1          3.2076048178171352     0.0235710883107979    31.0645485415540961
27     1          1.6174296438281486     4.7779344172907390    32.5818061115822957
28     1          3.2115371627416969     3.1658070554339242    27.5493536368666412
29     1          4.7641878076145199     1.5937698224094770    32.3218641573052849
30     1         -0.0076253019681615     0.0018531813824695    27.5739002269800118
31     1          4.7837224970684975     4.7939580844906438    29.0791017527490752
32     1         -0.0207680158166788     3.2016213975285130    31.0918781418842265
33     1          1.5754799499364889     1.6083667378388635    36.0394653050494895
34     1          3.1933634731869347    -0.0152678398637532    37.3322945511753304
35     1          1.5785792250353117     4.8022243076120965    38.9658555481668643
36     1          3.1752670261217619     3.1736583395617139    33.8931649257323144
37     1          4.7771179450247470     1.5976728024206410    39.4088876745890957
38     1          0.0122987917721772    -0.0125286041378942    34.1840389935646911
39     1          4.7907273056492148     4.8035074266540390    35.8946992735966219
40     1         -0.0074076185884082     3.1719213410974718    37.3352040618564729
41     1          1.6226048906306523     1.5678501793945481    42.6288524954527261
42     1          3.1992479464847610    -0.0217823820642639    43.9516018514187579
43     1          1.5649909305443683     4.7942408813740176    45.7659595121357796
44     1          3.1944538051887448     3.1948572535641224    40.6152786033898536
45     1          4.7750828288527503     1.5875119040173551    45.9797122968469978
46     1         -0.0317083611603687    -0.0140447273839706    40.7110559549996012
47     1          4.7807100399745046     4.7895756903498787    42.5807768189613540
48     1         -0.0198079108221098     3.2092798946161700    44.2525299561606644
ITEM: TIMESTEP energy, energy_weight, force_weight, nsims
7        -288688.9228304692078382    1    1   500
ITEM: NUMBER OF ATOMS
48        
ITEM: BOX BOUNDS xy xz yz pp pp pp
    0.0000000000000000      6.8121300630894934      0.0445580642425949
    0.0000000000000000      6.7647504136899936      0.3838951732602989
    0.0000000000000000     54.9975399188724339      0.3812267963472086
ITEM: ATOMS id type x y z
1      1          1.6757182807257456     1.6662096838134641     9.2545075389505591
2      1          3.2574353150791966     0.0935390511244281    10.8488587224287105
3      1          1.6940087146111920     4.8513324041864374    12.6804692931168788
4      1          3.2460676765544392     3.2314179550145705     7.5416311571932440
5      1          4.9164841471110847     1.6835874073955999    12.4399375522816911
6      1          0.0366227336720041     0.0374167725472937     7.7039838950337565
7      1          4.8945447144436667     4.8347162514404616     9.4071862095193399
8      1          0.0709309859356162     3.2585597810829623    10.9385762092983665
9      1          1.7039050187431837     1.7347795507777608    15.7248636150800536
10     1          3.3318240292903698     0.1162424802004951    17.5526408572358790
11     1          1.7826365176431112     4.9001361844019673    19.0938919159223595
12     1          3.3351661818821929     3.2829497528000227    14.0654283428619085
13     1          4.9269539025218672     1.7502164705948489    19.2253085375585044
14     1          0.0947032553057691     0.0939429508506532    14.2092579092577456
15     1          4.9339234350851040     4.9087335706496154    15.6699320722090860
16     1          0.1332898510929327     3.2823467715214840    17.3524938099631179
17     1          1.7787077372794244     1.7524036676858896    22.7235315594242309
18     1          3.3832311679689595     0.1487568647327061    24.1150793144515418
19     1          1.7964035220094261     4.9546687157936189    25.7048767016244106
20     1          3.3324732292062373     3.3141471420950404    21.0967868249338650
21     1          4.9493055097763854     1.7448458541131870    25.8448344412099580
22     1          0.1617169813415892     0.1427680664293622    20.7540421561594499
23     1          4.9756186712016293     4.9674794661343702    22.2680584330781066
24     1          0.2160701822489366     3.3735171947917379    24.4103501067679822
25     1          1.8066298128083214     1.8109805553949920    29.0804002119311313
26     1          3.4326926358728111     0.2174045622834582    30.7801101826318728
27     1          1.8256395034436326     4.9976803046385641    32.4904731768148878
28     1          3.3896493057262953     3.3612317157964768    27.3326388906032811
29     1          5.0397710308884704     1.8065752842050060    32.5250886284398320
30     1          0.2212062565691286     0.1604058411502225    27.4081395134039099
31     1          5.0338544240255398     4.9734982235967351    29.2497651361113000
32     1          0.2125220307659978     3.4011838041958691    30.9538914092675235
33     1          1.8297978599987019     1.8482814675555013    35.5690044718057123
34     1          3.4716871038831747     0.2276912984922929    37.3729072818827532
35     1          1.9149654232519020     5.0891287698326284    38.9227104580266143
36     1          3.4442832548968139     3.4145166158100024    34.4050530362246718
37     1          5.0514021642966371     1.8602083742788758    38.9917653691487516
38     1          0.2496771466479264     0.2591146091653955    34.0559176533116812