ITEM: TIMESTEP energy, energy_weight, force_weight, nsims
1        -384922.0854562020394951    1    1   489
ITEM: NUMBER OF ATOMS
64        
ITEM: BOX BOUNDS xy xz yz pp pp pp
   -0.8632347037925433      7.4624575653979992     -0.1302348094313249
   -0.7459099459493587      7.4613232718480589     -0.7329998943612184
    0.0000000000000000     41.9870697442579157     -0.7459099459493587
ITEM: ATOMS id type x y z
1      1         -0.0746332734975155    -0.1148345131483378     5.9782365539827262
2      1          1.7063254112385422     1.7659351245667274     7.4994700778869339
3      1         -0.1320429243991108    -0.2015279866210027     9.4887922501280286
4      1          1.6375450722973981     1.6428676842823495    11.3873929607727042
5      1         -0.1990062540670529    -0.2521630992663005    13.3983006855693194
6      1          1.6053239842761502     1.5879641132777260    15.0744203110531210
7      1         -0.3127531359372479    -0.3230379945702261    17.0874483828718233
8      1          1.4999424478471077     1.5085156677069413    18.9950973070463860
9      1         -0.3702514931316227    -0.3448617098470582    21.1838412657448103
10     1          1.4143134409947868     1.4650310835985167    23.0396991393898283
11     1         -0.4233981626856689    -0.4738722462113029    24.7049483125168408
12     1          1.3914804747196172     1.4036791712193246    26.7188035296095059
13     1         -0.4669892164066919    -0.4810888960705923    28.5821434990829530
14     1          1.2848239419375111     1.3328121240096378    30.6077634931179574
15     1         -0.5749518165995733    -0.5675735898448931    32.3907779994636655
16     1          1.2354375408891958     1.2848058626833554    34.4474558289884953
17     1         -0.1658866364236209     3.6563864625314619     5.7874557064787666
18     1          1.6492566049094786     5.4456864027061345     7.5495900430406557
19     1         -0.2215231195827607     3.5853880070938753     9.7582358727978544
20     1          1.5795075886540095     5.4253356347742274    11.2811278859569608
21     1         -0.2745136076810677     3.4606613563759838    13.5548410776968371
22     1          1.5275558052964564     5.3640282023435040    15.0749073610621540
23     1         -0.3549100920830964     3.4166420666306441    16.9885436413822504
24     1          1.4533051767484388     5.2734119910612804    19.1871251705217496
25     1         -0.4214174124431850     3.3732105409305744    20.8375067222523214
26     1          1.3384457300540469     5.1659461968273037    23.0504772201931800
27     1         -0.5156171961034448     3.2829970414425005    24.9402018642939183
28     1          1.3114183726451452     5.1093414541022133    26.8098272981080825
29     1         -0.5389645650878228     3.2395496552709346    28.7529720910444411
30     1          1.2191178963519937     5.0239357859731228    30.3731355486800716
31     1         -0.5975559467925983     3.1609842043796541    32.3114686234237354
32     1          1.1635603627417568     5.0001063653509528    34.5207736501759186
33     1          3.6333798282729868    -0.1344873433808196     5.6395352597697457
34     1          5.3997301139794409     1.7637011480234028     7.5029172163129374
35     1          3.5357007585381686    -0.1995677642075333     9.7110885921820280
36     1          5.4014012965769052     1.6274978219214002    11.3199575280564506
37     1          3.5256497731469381    -0.2370898773709491    13.3289674373006282
38     1          5.3324437384360586     1.5743845675337278    15.2693788719966346
39     1          3.4027155477775555    -0.2966381212876965    17.2274626643479998
40     1          5.2274890278537116     1.5435929438716249    19.1131943381160596
41     1          3.3986904347857214    -0.3880698086676477    20.8694924719834951
42     1          5.1701330646575778     1.4735063913488182    22.9393206517522295
43     1          3.3097278070761020    -0.4176676635549366    24.9446860833426030
44     1          5.1310067368043280     1.3751809571043276    26.5237819880613763
45     1          3.2017398036672517    -0.5197228155561076    28.6932706765750822
46     1          5.0020794679631955     1.3277495091326752    30.5312042701462758
47     1          3.1808873685345733    -0.5587533836516858    32.5507865235520555
48     1          4.9720551313186530     1.2287224000556798    34.4937633682094358
49     1          3.5970372937138708     3.6059426191509787     5.9704941383218850
50     1          5.3666006587498378     5.4869216717284992     7.7688549186591187
51     1          3.4886478569216393     3.5387265897137983     9.6703611345300970
52     1          5.2933736476413813     5.3806406466559560    11.6858454499288378
53     1          3.4227516995066840     3.4811811447554590    13.2506153664508659
54     1          5.2237702168884530     5.3339969959217148    15.4314069741397262
55     1          3.3929454835701249     3.4080492814279317    17.2933949599674079
56     1          5.1652114567684349     5.2566470823670839    19.2177883275559793
57     1          3.3008948788673287     3.3542566687251623    21.1151168299874037
58     1          5.1285036094197380     5.1949990712571612    22.9610195693960648
59     1          3.2522199303731090     3.3155994847841641    24.9340591559903331
60     1          5.0026014219750046     5.1425129638129246    26.8583811455603403
61     1          3.1667797501284709     3.1967194171332252    28.5408744082313213
62     1          4.9536407688467623     5.0669437211227377    30.4242841970425246
63     1          3.1113446796258586     3.1339154402914060    32.2028060869255981
64     1          4.8883723294786137     4.9860351379378134    34.2545336409275833
ITEM: TIMESTEP energy, energy_weight, force_weight, nsims
2        -384922.1552976516541094    1    1   489
ITEM: NUMBER OF ATOMS
64        
ITEM: BOX BOUNDS xy xz yz pp pp pp
   -0.6905907480170549      7.4624575653979992     -0.1041908325280858
   -0.5946459310987360      7.4617337070141563     -0.5863999154889691
    0.0000000000000000     41.9917860174392530     -0.5946459310987360
ITEM: ATOMS id type x y z
1      1         -0.0867689078398856    -0.0521673032960925     5.6933891203168727
2      1          1.7544539639045866     1.7672763195346124     7.8416049093970308
3      1         -0.1324009275682262    -0.1468079817250431     9.5075450360668974
4      1          1.6594601523503552     1.7303257677480091    11.2862499049079954
5      1         -0.1542319732604063    -0.1802517233175473    13.4119958892902229
6      1          1.6106941473966705     1.6376445367160126    15.1183741058948851
7      1         -0.2542323875522461    -0.2334502627223911    17.3064778925130049
8      1          1.5651898635231041     1.6115274542882656    19.2269554293061837
9      1         -0.3060865620446915    -0.3064988653885349    21.1145701943621127
10     1          1.5306888087064103     1.5414648649487535    22.8832012337376263
11     1         -0.3345738738166383    -0.3264360778411434    24.7749479905376724
12     1          1.4940126957271587     1.4782994462246859    26.5371080956879020
13     1         -0.4333925392879404    -0.4395073554698454    28.6421731254565408
14     1          1.3981187220829290     1.4277652334457429    30.3760181692952074
15     1         -0.4171942801369566    -0.4624037945158710    32.3775776457094580
16     1          1.3732431618123402     1.3607262351528429    34.3762312905313010
17     1         -0.1125872642264826     3.6771447078165025     5.8503460180928579
18     1          1.7049198540323223     5.4659812037577487     7.8768318186870605
19     1         -0.1927074636830356     3.5852180170484509     9.3721551195894701
20     1          1.6076754867756236     5.4564731571097367    11.2954125126170020
21     1         -0.2334102245853761     3.5481813745276098    13.2205469384795133
22     1          1.5838741908314315     5.3926598034070263    15.2403560450969433
23     1         -0.2603020444513034     3.5111411215101023    17.0711433261354699
24     1          1.5408097885161276     5.3126943473764596    18.9630748467939938
25     1         -0.3393224888234009     3.4204567775776331    20.9985258937029187
26     1          1.4526788345198636     5.2925732944527102    22.9429975370264643
27     1         -0.4182595155434106     3.4113684067651340    24.7270185659773709
28     1          1.4510481585875730     5.1850904626527630    26.5854658364655876
29     1         -0.4157584402839049     3.3467357035925125    28.4108235795720603
30     1          1.3349078802005312     5.1349309229880999    30.6819283304322532
31     1         -0.4936919482796694     3.2812367945214560    32.5851850357796806
32     1          1.3361404483317179     5.1270083487998450    34.4482346060154043
33     1          3.6758484129364333    -0.0504578806258389     5.6004445011458728
34     1          5.4352660670671327     1.7381074957748526     7.8299185953483770
35     1          3.6062414067148687    -0.1512716324578985     9.3892541748557719
36     1          5.4232707905907089     1.7279904911856845    11.2836506133535170
37     1          3.5503404953650599    -0.1576702981009045    13.4668497593648020
38     1          5.3205361285887998     1.6794731330905353    15.4167971315850192
39     1          3.5020436842698563    -0.2664823723400030    17.1217224323934758
40     1          5.2707974518866516     1.5682181836865317    19.1936979347803707
41     1          3.4655728758948645    -0.3111658675154382    20.8048765733048953
42     1          5.2210894113503361     1.5371359856092486    22.8280030310177011
43     1          3.3692209812701006    -0.3900888685248127    25.0035596719738180
44     1          5.1872912285495580     1.4953095021967513    26.6790403324268439
45     1          3.3635210674366127    -0.4402592765089432    28.5390916891409319
46     1          5.1239446320763680     1.4259164664359021    30.3346898534968439
47     1          3.2659847183444897    -0.4254875632499480    32.6086290499132119
48     1          5.1266192539520103     1.4110473393140253    34.1506094242595992
49     1          3.5678401347952797     3.6316609561464417     5.8059271068436109
50     1          5.4483191009839658     5.4600248549390473     7.6799491307656940
51     1          3.5529292230631175     3.5990732863379877     9.6929219746194857
52     1          5.3713005498794120     5.4379756911768631    11.4855135270965505
53     1          3.5009528214393888     3.5733800552623944    13.3569908487859781
54     1          5.3037817165881611     5.3838551836429778    15.2330158809010960
55     1          3.4059507644874385     3.4874941806388899    17.1729944031207715
56     1          5.2188855981045190     5.3302498039833619    19.1598105634642977
57     1          3.3594415070193477     3.4454184558831149    20.9985300928815235
58     1          5.1723473726776117     5.2379645857197454    23.0811043220592182
59     1          3.3616508258589000     3.3437191889362095    24.8723185439549113
60     1          5.1810871157288112     5.2409685080370991    26.7683526621073362
61     1          3.2927837854134561     3.3287352106768493    28.8123238423992021
62     1          5.1245530866687945     5.1779102233447931    30.6018038035323769
63     1          3.2079738926196124     3.3036313051336821    32.6004406516398078
64     1          5.0272919933820868     5.1385583453981152    34.3855324711341623
ITEM: TIMESTEP energy, energy_weight, force_weight, nsims
3        -384922.3633407481247559    1    1   489
ITEM: NUMBER OF ATOMS
64        
ITEM: BOX BOUNDS xy xz yz pp pp pp
   -0.5179393297840076      7.4624575653979992     -0.0781393931672822
   -0.4444341227648373      7.4620471302319027     -0.4397999366167254
    0.0000000000000000     41.9954351591887374     -0.4444341227648373
ITEM: ATOMS id type x y z
1      1         -0.0962056821989228    -0.0791462366805429     5.7806506519447503
2      1          1.7915451126818891     1.7812519343266082     7.5235829978130440
3      1         -0.0918565731123010    -0.0839721663483183     9.5488842506046918
4      1          1.7397833953663731     1.7708269326449724    11.4025459603572195
5      1         -0.1437349695427866    -0.1136051450017872    13.4745881324810437
6      1          1.6664730868528852     1.6692394159814528    15.3886308789054507
7      1         -0.1684791192728594    -0.1529328151726777    17.1803703195157560
8      1          1.6293155908892030     1.6327611740196506    19.2859500461577085
9      1         -0.1845091029302797    -0.2102131103609985    20.9025517239801317
10     1          1.6035670819435133     1.6216897410057654    23.0994295266581631
11     1         -0.2914219407538234    -0.2442850213386968    24.6676104677420369
12     1          1.5740214779095099     1.5762891948629594    26.7269700184477905
13     1         -0.2955144569541081    -0.3141537904722725    28.7366321711861552
14     1          1.5398646009675359     1.5791516312213725    30.4139550487052475
15     1         -0.3392201812405429    -0.3645548718097780    32.2224674661181325
16     1          1.4669200076745632     1.5263032511920211    34.1204637567682170
17     1         -0.1134745498131174     3.7050392022967582     5.6308151388402807
18     1          1.7093334134247269     5.4831249246212987     7.5840186285506324
19     1         -0.1257075890798383     3.6350244239609566     9.5972209964729185
20     1          1.7155497808962787     5.4457287447149891    11.6278682681603307
21     1         -0.1750852701718633     3.6125976738619512    13.5756543467351474
22     1          1.6130389293926732     5.4327149781841975    15.4340111461384719
23     1         -0.2157484074789462     3.5654574538854233    17.1982141799148955
24     1          1.5829544171626599     5.3718823746636577    19.2070658207546892
25     1         -0.2706538829885581     3.5429572274553776    20.9358877004094950
26     1          1.5957610307451688     5.3597826771095338    23.1084711438479324
27     1         -0.2625364906854378     3.4365792850860579    24.7028068419489557
28     1          1.5210661763456068     5.3154749323832293    26.7567783783237800
29     1         -0.3271040417073943     3.4355591475404554    28.7858550207362356
30     1          1.4925119595566374     5.3039451979907817    30.4473708164614152
31     1         -0.4158292431111656     3.3749007906011386    32.5576750295587800
32     1          1.4702299391670306     5.2340314546582327    34.2228066322511566
33     1          3.7043360667240046    -0.0829037548012724     5.8067046199175110
34     1          5.4714455425867872     1.7556252113220097     7.8240099418548485
35     1          3.6432348746382281    -0.1187029494130620     9.6361927603006450
36     1          5.4495848025065898     1.7308719813273010    11.3809855039464924
37     1          3.5641756514031595    -0.1652899076243486    13.2270628381092674
38     1          5.4181089266624056     1.7206482157091041    15.3007260340302391
39     1          3.5132745489919794    -0.1602918577727832    17.2449550992470719
40     1          5.4106166332998979     1.6289943766732267    19.0928886316438842
41     1          3.5034222087884710    -0.2574510469926096    20.9614461222473771
42     1          5.3672773163784111     1.6168103200153079    23.0708012385101426
43     1          3.4717406241098958    -0.2311836051386699    24.8187562384234752
44     1          5.3020063240251725     1.5496098406061660    26.8333276575319495
45     1          3.4508637353865850    -0.3269804179122538    28.7223999182107050
46     1          5.2707887450277227     1.5232295657759471    30.7016363781762394
47     1          3.3655007432314710    -0.3411744626825924    32.4150711303887178
48     1          5.2065361040181859     1.5119288336680066    34.1769686147748999
49     1          3.6491817498454071     3.6554745345853612     5.6492427357881327
50     1          5.4614996125314059     5.5060148939957108     7.6605091141495789
51     1          3.6148574985769928     3.6216059811298811     9.5610671263443727
52     1          5.4276147552240062     5.4949630301604069    11.5291118028399833
53     1          3.5462455793630450     3.5813427722501237    13.1770000798560005
54     1          5.3422157908205401     5.4668586705494260    15.3588141199424282
55     1          3.5407352011498103     3.5183906430822938    17.0561310241408108
56     1          5.3588410981121459     5.3826595462016282    19.2178082530684087
57     1          3.4679612555708879     3.5158616391395432    20.9736247984435416
58     1          5.3045012914377825     5.3608606772981524    22.6995363944418145
59     1          3.4028589175958546     3.5049781679725642    24.7732919803201348
60     1          5.2306597246756183     5.3331683475319442    26.5460788810430977
61     1          3.3964475451629332     3.4070399864697536    28.7983318645220336
62     1          5.2539632781045729     5.2507007150487999    30.5609432713059270
63     1          3.3706838298398543     3.4091635460574334    32.4403439832675176
64     1          5.1894249713269831     5.2484613962962792    34.1334151489713093
ITEM: TIMESTEP energy, energy_weight, force_weight, nsims
4        -384922.5100760248024017    1    1   489
ITEM: NUMBER OF ATOMS
64        
ITEM: BOX BOUNDS xy xz yz pp pp pp
   -0.3452953740085326      7.4624575653979992     -0.0520954162640436
   -0.2952521335749683      7.4622784664164294     -0.2931999577444890
    0.0000000000000000     41.9980246319639292     -0.2952521335749683
ITEM: ATOMS id type x y z
1      1         -0.0524273765092100    -0.0039403426237937     5.7212481023286976
2      1          1.8340787985900970     1.8007211584874716     7.5118758805371115
3      1         -0.0829888768965794    -0.0765322879310753     9.6286771172472108
4      1          1.7614525782092476     1.7921424201626552    11.3561062679894444
5      1         -0.1175617912618384    -0.0935095050444543    13.4135264976724109
6      1          1.7680711700227432     1.7414054718476313    15.1104398837170582
7      1         -0.1215586446678942    -0.1281559986599822    17.0795046691792969
8      1          1.6962047104650368     1.7345567135689368    19.0392374935683151
9      1         -0.1584193476393165    -0.1714203080123452    21.1535650466275911
10     1          1.6897190571966592     1.7302381450637685    22.9796433574278467
11     1         -0.1521093344504436    -0.2102805912170679    24.9535841135498551
12     1          1.6329100740771898     1.7120140457927890    26.7270137006714847
13     1         -0.1837498992460129    -0.1637406359589150    28.5811592913332788
14     1          1.6683756279931430     1.6804382642457725    30.4574252415687283
15     1         -0.2298494004212049    -0.2491065591561723    32.4035717049893037
16     1          1.6196023739857917     1.6002094649285590    34.3305628693752425
17     1         -0.0786345368331685     3.6679476868135437     5.9701577949149582
18     1          1.7551369102491274     5.5123668858568244     7.7204254714520548
19     1         -0.1285411055219919     3.6425233435835560     9.4743301769222796
20     1          1.7203499771522457     5.4854868994755215    11.4778291427802657
21     1         -0.1032141319308699     3.6043510538729704    13.5414188822816666
22     1          1.7129776061775681     5.5208399484849791    15.1418418067343783
23     1         -0.1787760651058135     3.6473444649466464    16.9868066292116282
24     1          1.6956610487753461     5.4286584086942407    19.0692786805875585
25     1         -0.1605113201358671     3.5935500292714617    21.0912399780737552
26     1          1.6336994297011078     5.4157902585754876    22.8689407643004543
27     1         -0.1833444075737364     3.5591648083091085    24.8934975397089069
28     1          1.6377553212208236     5.4370857566864421    26.8403705689556169
29     1         -0.2136985052197406     3.5594236807426567    28.5284013727906043
30     1          1.6145801788684604     5.3733063538575454    30.5451171170002702
31     1         -0.2552378467594841     3.4763067666348801    32.2857630460941820
32     1          1.5588538007358537     5.3408544014865438    34.3133310798687461
33     1          3.7217829724344123    -0.0376927462831363     5.6390579681239439
34     1          5.5607306316987364     1.7752737813538810     7.7051003922638515
35     1          3.6509829067274620    -0.0828365968158929     9.7448268541693697
36     1          5.5202747721070038     1.8049823388768547    11.4891686094308962
37     1          3.6558161646718457    -0.1203441735738969    13.2848151515828299
38     1          5.4948268412075700     1.7623151330264430    15.4444333744052162
39     1          3.6215770338943072    -0.1163302568854947    17.0810585960906813
40     1          5.4338883466245882     1.7152684709326189    19.2782440519463591
41     1          3.6155276553147564    -0.1442251018811127    20.9090483474178370
42     1          5.4040741471113796     1.6698463647171025    22.9648264543376897
43     1          3.5328982841747658    -0.1794500768887088    24.7599564207866507
44     1          5.4289925201099569     1.6889682689817564    26.5486900880841610
45     1          3.5228308667840551    -0.1951164348532831    28.7147844063047977
46     1          5.3406373016061863     1.6336504826845006    30.4096650879572614
47     1          3.4729607535981568    -0.2399108783285057    32.2608162194627965
48     1          5.3281843927388808     1.6379187369097923    34.5022885922928850
49     1          3.6843299541394763     3.6690614791530560     5.8037658211255794
50     1          5.5096237547298070     5.5569749358101470     7.4968741861385739
51     1          3.6707641819907164     3.6507762767556668     9.6811536490248500
52     1          5.5009085546926153     5.5283561892335040    11.3465265185708954
53     1          3.6342434504223511     3.6186439662153131    13.4019896403060095
54     1          5.4844887916717964     5.4999708342715961    15.3525584957203325
55     1          3.5989958002299955     3.6410167936377111    17.1127545052804244
56     1          5.4065410939644591     5.4273184276391051    19.1951341610021657
57     1          3.5871247009779972     3.5499129697129743    21.0128884633203619
58     1          5.3774198837368568     5.4593346821043260    22.9494299785076130
59     1          3.5503208199651088     3.5873285002694977    24.9268901690937810
60     1          5.4013140689820309     5.4252954921732570    26.7991663069891963
61     1          3.5170461973701328     3.5215428822250883    28.8197794678847075
62     1          5.3501614563710786     5.3624028548954614    30.4343515268359255
63     1          3.5042139545614259     3.4904059328130441    32.4788531641421017
64     1          5.3322679449224557     5.3498548959285577    34.3609568398013963
ITEM: TIMESTEP energy, energy_weight, force_weight, nsims
5        -384922.4843071047798730    1    1   489
ITEM: NUMBER OF ATOMS
64        
ITEM: BOX BOUNDS xy xz yz pp pp pp
   -0.1726439557754806      7.4624575653979992     -0.0260439769032381
   -0.1471148884442521      7.4624127906526079     -0.1465999788722425
    0.0000000000000000     41.9995768231375237     -0.1471148884442521
ITEM: ATOMS id type x y z
1      1         -0.0545748116186943     0.0097786127861451     5.5653639248339530
2      1          1.8148541537805003     1.8417511429542153     7.5708983175886404
3      1         -0.0074813452805632    -0.0374480058338282     9.6052990194938701
4      1          1.8101202132607330     1.8041841216487551    11.3992101445098140
5      1         -0.0624969047060406    -0.0604478868652126    13.5150606257481520
6      1          1.7966751529710989     1.8452241866180967    15.3427016109107601
7      1         -0.0369260866933379    -0.0275292190596748    17.0708287987486216
8      1          1.8099908777259441     1.8222083764561297    19.2785281545414833
9      1         -0.0658655895507570    -0.0981120947241123    21.0512252933040571
10     1          1.7880562311891011     1.8147770435221720    22.8468626009274303
11     1         -0.1055887937106916    -0.0839782062338658    24.6201015342310292
12     1          1.7341254847386995     1.7678278015440234    26.8808967550437004
13     1         -0.0963237829419084    -0.1300393680378232    28.5955336788059711
14     1          1.7327540089187063     1.7639269466010015    30.3363153391406470
15     1         -0.1344190471557413    -0.1279362226072725    32.5442204928599352
16     1          1.7727675093269852     1.7428851952070095    34.4533700567632053
17     1         -0.0466435219031182     3.7470239520972832     5.7687174758962207
18     1          1.8281263353752941     5.5538918936812056     7.6305293167621313
19     1         -0.0148667989254116     3.7294122641517848     9.4540501434383870
20     1          1.8087445265624973     5.5809167880873334    11.3701422373905210
21     1         -0.0669379002266573     3.6958884868481867    13.5695130770993515
22     1          1.8300893629377566     5.5485562800116570    15.1905749436996729
23     1         -0.0609394498656061     3.6742158103946090    17.0767255393345891
24     1          1.7715599655845877     5.5586754755552334    19.2632739082393165
25     1         -0.1198513611297561     3.6474699541002176    20.9898513116924086
26     1          1.7909421121220956     5.5166741500156107    23.0353819014557715
27     1         -0.1014457622180404     3.6597107213029254    24.6692704388178754
28     1          1.7813229781643842     5.5262794823655117    26.6150142340071412
29     1         -0.1233509941276850     3.6123574834640610    28.5879149555702519
30     1          1.7354496831326389     5.4908703434765496    30.3990837067028217
31     1         -0.1023005985116458     3.6222506834338484    32.4375247678984380
32     1          1.7470751574953054     5.5077115730741966    34.3953308415513135
33     1          3.7273108849543455    -0.0362569928990728     5.8898232556657382
34     1          5.5639449007193518     1.8341635628031032     7.7252971619058588
35     1          3.7295244451309073    -0.0606689260522932     9.6532709361412561
36     1          5.5683100002816897     1.8258977914951078    11.6552059651622013
37     1          3.7196244968055221    -0.0417083786278439    13.2500642957825665
38     1          5.5736222485958677     1.8476799983800438    15.2905255366233739
39     1          3.6447385391912737    -0.0289191073303136    17.2060086367115730
40     1          5.5157700957846014     1.7719995659825523    19.2266040777150344
41     1          3.6593910774939795    -0.0429925429443444    20.9432317814187243
42     1          5.5138333940859141     1.8175594820444474    23.0290987647630239
43     1          3.6133763889019490    -0.0988338006352029    24.9150015628946910
44     1          5.5285875126184241     1.7942212993319004    26.8880156833152206
45     1          3.6063077992834378    -0.1182691959431337    28.7628557929116688
46     1          5.4587057590176329     1.7540035289853741    30.5650954340116385
47     1          3.6497694005583345    -0.1137685272067038    32.2731426241703616
48     1          5.4710634582424742     1.7769810553460446    34.1646691656386423
49     1          3.7221313912379466     3.6885409076664497     5.7887764737869505
50     1          5.5765038784951351     5.5952444404494228     7.5633257938874277
51     1          3.6939471623264359     3.7109479139974568     9.4664358186435305
52     1          5.5669791678413318     5.5670809050476624    11.5986871346313052
53     1          3.6734705021040752     3.6502952787541991    13.2906694866551760
54     1          5.5175485715664063     5.5146488599138097    15.2371482744388480
55     1          3.6506918612655435     3.6907150030555682    17.2881220093584886
56     1          5.5016752860272291     5.5339018010685050    19.2059528857910990
57     1          3.6558086101648679     3.6572025391674798    20.9152558632968351
58     1          5.4907640801337392     5.4881379694776369    23.0943703071038620
59     1          3.6393946926527270     3.6219362651749942    24.6917738120797097
60     1          5.5007708065592720     5.5385030599748237    26.7312942623996825
61     1          3.6493741826267558     3.6304145296979944    28.5004970363705752
62     1          5.4580344361708759     5.4590175302808523    30.5595766896170780
63     1          3.6095964588301737     3.6448082114890523    32.3437439128100550
64     1          5.4282027822022521     5.4893978824711782    34.1942704673835891
ITEM: TIMESTEP energy, energy_weight, force_weight, nsims
6        -384922.5266277646878734    1    1   489
ITEM: NUMBER OF ATOMS
64        
ITEM: BOX BOUNDS xy xz yz pp pp pp
    0.0000000000000000      7.4624575653980019      0.0000000000000005
    0.0000000000000000      7.4624575653980019      0.0000000000000026
    0.0000000000000000     42.0000917327095422      0.0000000000000026
ITEM: ATOMS id type x y z
1      1          0.0372384094970929     0.0229112372172853     5.8239637201620349
2      1          1.8423195838133541     1.8765148031152770     7.7249466721128952
3      1         -0.0009507170938311    -0.0145741796252217     9.6731587272171868
4      1          1.8339593926028390     1.8403203914315840    11.5553382380993117
5      1         -0.0003664066664602    -0.0299371410151063    13.3475577524991458
6      1          1.8824004433971073     1.8403300926264192    15.3226288662665056
7      1         -0.0243619389679972    -0.0084109359219590    17.2949321739886805
8      1          1.8964104612303856     1.8387211867753197    18.9369299602881327
9      1          0.0157271293190776    -0.0259111451585736    20.9869334377158197
10     1          1.8611496029881238     1.8883427983564336    22.7531632953514560
11     1          0.0300140043280323     0.0279543660399824    24.6248973834196541