ITEM: TIMESTEP energy, energy_weight, force_weight, nsims
1        -384922.5652146128704771    1    1   500
ITEM: NUMBER OF ATOMS
64        
ITEM: BOX BOUNDS xy xz yz pp pp pp
   -0.9002289800116910      5.7908924712567993     -0.2021311017092177
   -0.7103861521264813     11.5800187203098641     -0.6980978783024734
    0.0000000000000000     39.9876413096406083     -0.7103861521264813
ITEM: ATOMS id type x y z
1      1         -0.1198145595253814    -0.1031071170202765     6.9339289808460389
2      1          2.7347072449396252    -0.1893497647188534     7.6913268973636795
3      1          2.6721886532452177     2.7028236465897724     8.5507092942774268
4      1         -0.2327668664921457     2.6787784641138610     9.5238645282453653
5      1         -0.1913784130908836    -0.1672552917917654    10.0976032069919590
6      1          2.6747753451860112    -0.1907527793480508    11.2137742401038256
7      1          2.6322989002374175     2.6643344071079178    12.0667066304743287
8      1         -0.2783158979152362     2.6177845591330668    12.8222811105482499
9      1         -0.2248755143299621    -0.2858707633508402    13.6221738934856464
10     1          2.6733401847336165    -0.2494331606004998    14.2559620131869274
11     1          2.5957141351888473     2.6640203584491045    15.2665336831282943
12     1         -0.3420989484813983     2.6283337682010020    15.8427196055230368
13     1         -0.3120655072350176    -0.3261516877880939    16.8630442611798266
14     1          2.6017005855093451    -0.3014920047796000    17.6918561063123541
15     1          2.5112961281176505     2.5326776198442897    18.4118455843848281
16     1         -0.3755705823505746     2.5709102458316031    19.0388478013558604
17     1         -0.3764760605012815    -0.3087205602912883    19.9908455743068671
18     1          2.5367771794817364    -0.4192863482923800    20.7225874201602451
19     1          2.4693511336328977     2.4762681280064855    21.5992604731762796
20     1         -0.4288552482790543     2.5340167873319457    22.5015216178663557
21     1         -0.3929128944350057    -0.4345898414012661    23.4062380037328417
22     1          2.4516813579299455    -0.3733275124395335    24.0278658817118611
23     1          2.3870300653459942     2.4319399423648043    24.9597458723199850
24     1         -0.5194295324160516     2.4458003402709410    25.7043917300239819
25     1         -0.4725555721389734    -0.4686396308554495    26.4662922549530890
26     1          2.4410963249476696    -0.4483596230137543    27.4307581744644438
27     1          2.3655043406458183     2.4018455680460487    27.9434877088649181
28     1         -0.5539789040417168     2.3388638187443989    28.8489118759825836
29     1         -0.5325413733297686    -0.4786663113926027    29.7991861815931465
30     1          2.3479200762381947    -0.5135009707202928    30.3788470300176989
31     1          2.2961714094489607     2.3685161489485220    31.4709055154198545
32     1         -0.6018533100472807     2.3109703323947639    32.1863683924960711
33     1         -0.2136441659865812     5.6189796837603732     7.1748465222083615
34     1          2.6402221065181712     5.6631270252799855     7.7098291789976505
35     1          2.5694366041731374     8.5704505590297781     8.7209606759173539
36     1         -0.3432147474751168     8.4646558285894660     9.5079734395889144
37     1         -0.2671838786848031     5.6615110233247439    10.3947233782149819
38     1          2.5988155326459155     5.5782914514687176    10.9428419751744865
39     1          2.5572483153605652     8.4486853882663944    11.8254172040478274
40     1         -0.3453203557732575     8.4716320027541343    12.5454586660540013
41     1         -0.3528208620080001     5.5745155593188338    13.5733849723237530
42     1          2.5294381457294230     5.5341369734217380    14.2076369486642253
43     1          2.4983484491783488     8.4645214092074497    15.1211626119112257
44     1         -0.4398422522761372     8.3448657427805379    16.0153182617078365
45     1         -0.3672269987745219     5.4588100911704149    16.8628403242091487
46     1          2.5143803392464878     5.5159374194556392    17.4559050300006895
47     1          2.4525203146951218     8.3762447768595418    18.3197940340900338
48     1         -0.4765080061165872     8.3035770054495046    19.3428378493558775
49     1         -0.4332692553685989     5.4831065530305212    19.8207981296376197
50     1          2.4456782933820143     5.3855169794432234    20.6937483332477292
51     1          2.3599255084088342     8.2615027657804809    21.7941762319759924
52     1         -0.5500863815911968     8.2518351908200707    22.5293530162178648
53     1         -0.4828333443346437     5.3775206176668258    23.4070497528514281
54     1          2.3644223508692024     5.3870783921740921    23.9280207401258167
55     1          2.2930063709209954     8.2711158534802340    24.6729305162624577
56     1         -0.5928247239613853     8.2365619572391804    25.7775531185641036
57     1         -0.5903182332620986     5.3262605814186266    26.6701532491137705
58     1          2.3271938443120233     5.2477939836897765    27.4498402768974010
59     1          2.2749040538809369     8.1836491197474803    28.2876053549191617
60     1         -0.6383671514090071     8.1962180208692246    28.9574383344969490
61     1         -0.6159966231001585     5.2866121142173519    29.7543760307415610
62     1          2.2427115863895328     5.2592604801648282    30.6563052780087659
63     1          2.2097355958443341     8.1667927962292648    31.3806734028046499
64     1         -0.7236502134525244     8.1587367702837454    32.0657456724855408
ITEM: TIMESTEP energy, energy_weight, force_weight, nsims
2        -384921.9051345793413930    1    1   500
ITEM: NUMBER OF ATOMS
64        
ITEM: BOX BOUNDS xy xz yz pp pp pp
   -0.7201843421878501      5.7908924712567993     -0.1617048813673734
   -0.5663319110115030     11.5806557184817045     -0.5584794608204767
    0.0000000000000000     39.9921292513058333     -0.5663319110115030
ITEM: ATOMS id type x y z
1      1         -0.1221825170163825    -0.1399448088247068     6.8842051371905342
2      1          2.8160591873378711    -0.1597942132416165     7.7657836359804699
3      1          2.7299044948991384     2.7227499990058699     8.5306731000409446
4      1         -0.1945918771342541     2.7272304552598290     9.2937509206463371
5      1         -0.1460758455820777    -0.1802759715907743    10.2527501824538767
6      1          2.7555397872632854    -0.1263418939237242    10.8684929996845305
7      1          2.6982768742906984     2.7141616714482377    11.9992144652842523
8      1         -0.1971680180730181     2.7101152496562588    12.7499467155897648
9      1         -0.1954749268648218    -0.1587854930568627    13.4114085349805130
10     1          2.6808551247985339    -0.2080364781829465    14.4325435680058050
11     1          2.6230262371713065     2.6921419505311039    14.9571443226727343
12     1         -0.2603853195942363     2.6902945718451425    15.9266415184087400
13     1         -0.2247962333168637    -0.2287350390689407    16.7087036027697273
14     1          2.6303504827655266    -0.2532573657093724    17.4095616686859351
15     1          2.6268520998866638     2.6932187702562507    18.3394146666951237
16     1         -0.2875836122166739     2.6664433772774108    19.3828853039072690
17     1         -0.2706323888469042    -0.3400061190157465    20.0466026793877923
18     1          2.6060512314105111    -0.3102512083783547    20.9499528933421395
19     1          2.5372245763273304     2.5659526118798008    21.6674916763690710
20     1         -0.3503593975123305     2.5673942371183514    22.5047468983097829
21     1         -0.3458677866484574    -0.2923288814438642    23.4169433712545185
22     1          2.5393541520181375    -0.3399168579293391    23.9471630200812520
23     1          2.5210113182605611     2.5602013674603370    25.0377483847643632
24     1         -0.3941699268450460     2.4821004964444304    25.5389497446063558
25     1         -0.3423189546204453    -0.3715339146712826    26.5339339243142156
26     1          2.5342318469149618    -0.3514033551949641    27.3699573886739884
27     1          2.4688522706352454     2.5283283094688533    27.9315188691949778
28     1         -0.4282543754572019     2.5223636398189515    29.1179173771383688
29     1         -0.4035300799503885    -0.4283047595387270    29.7366995961921212
30     1          2.4721274403776543    -0.4622303844991102    30.4972419158029808
31     1          2.3968411420564180     2.5060767190444269    31.3391642192273174
32     1         -0.5124623547445037     2.4798583526841407    32.3771559347320377
33     1         -0.1550794008294431     5.7438304268348768     7.0132797343491244
34     1          2.6867512992522635     5.7170532747131979     7.9044403473076725
35     1          2.6720192726598051     8.5701720089413840     8.6556045126091004
36     1         -0.2574957515603642     8.5398927773281095     9.4730076415894651
37     1         -0.2195410306660503     5.6135328092543464    10.3472195901713100
38     1          2.6835145096764332     5.6457313888352845    11.1192236540255927
39     1          2.5881432324452089     8.4621447043417355    11.9520397496194111
40     1         -0.2917167001382348     8.4594341647222357    12.7239078402342400
41     1         -0.2578101861109333     5.5867274177424555    13.4666176694119422
42     1          2.6395581913232076     5.5928148141812839    14.4959150960174235
43     1          2.5787634781121880     8.5133440322406688    15.1836557435392052
44     1         -0.3321050072818034     8.4512637179824157    16.0863140936575064
45     1         -0.2973905177223516     5.5249146766938546    16.8851728723040395
46     1          2.5915955015613172     5.5986370283396631    17.3980919260166615
47     1          2.5442852511903062     8.4451613330831563    18.3377829878216723
48     1         -0.3638006435953071     8.3769368797957480    19.0102786356728544
49     1         -0.3729782182416105     5.5149731042385577    19.9263863388583680
50     1          2.5143496376793992     5.4971176132502952    20.9618905439236549
51     1          2.4730846122265877     8.4007309352719055    21.5115103746501966
52     1         -0.4404397048098542     8.3417534224859189    22.2821547061099388
53     1         -0.3891331237150197     5.4799981347811242    23.0486878466826433
54     1          2.4798856853178828     5.4715460023595224    23.9123858644843210
55     1          2.4098701149705279     8.3575160294079343    24.9481060270475616
56     1         -0.4859020002709905     8.3217226492584953    25.8053773096785548
57     1         -0.4660816194915434     5.4334298143474609    26.6488153148015172
58     1          2.4360048442080324     5.3633035894407044    27.1807506259731362
59     1          2.3623593866296728     8.3217889402539456    28.0369981100952970
60     1         -0.5025893952912402     8.2553745135083147    28.7389359635012909
61     1         -0.4721546527224455     5.3244054394807456    29.6291767574870590
62     1          2.3871762475281435     5.3740266709630999    30.4931307249159467
63     1          2.3500937348066548     8.1852711307259511    31.5305025624172686
64     1         -0.5437901958701229     8.2223829261352659    32.3058099761477067
ITEM: TIMESTEP energy, energy_weight, force_weight, nsims
3        -384922.6402945283334702    1    1   500
ITEM: NUMBER OF ATOMS
64        
ITEM: BOX BOUNDS xy xz yz pp pp pp
   -0.5401397043640063      5.7908924712567993     -0.1212786610255293
   -0.4232679125090964     11.5811479443417582     -0.4188610433384770
    0.0000000000000000     39.9956095776810656     -0.4232679125090964
ITEM: ATOMS id type x y z
1      1         -0.0862650647309267    -0.0596760512683958     7.1285374818588298
2      1          2.8237374873310692    -0.1130352123228393     7.6407012603058240
3      1          2.8037179526664464     2.8628884518593476     8.4735378376637929
4      1         -0.1560896617506305     2.7516363767645808     9.5094401239695632
5      1         -0.1369716827455859    -0.0693353392757912    10.3023730816518810
6      1          2.7978960239944310    -0.1408783086396505    11.0266415768112331
7      1          2.7212008715862059     2.8247875022472706    12.0651435777395513
8      1         -0.1856983637113796     2.7396011835975074    12.5065991180141651
9      1         -0.1519613609160790    -0.1140748378133326    13.6881574152799335
10     1          2.7274263545180846    -0.1299378061727480    14.1136587068940091
11     1          2.7062853224507202     2.7463887282762474    15.1861929720119786
12     1         -0.2186169995839752     2.7683278145354238    15.9199644240069880
13     1         -0.1873627971842881    -0.1980135801247200    16.9072160508224698
14     1          2.7323942758832276    -0.1634330961752783    17.6562538269932787
15     1          2.6446826045440357     2.6752265306257197    18.4819431889197148
16     1         -0.2218702274888806     2.7476213383970096    19.3717535121210922
17     1         -0.1958086874731789    -0.2387374708322218    20.0736564624046032
18     1          2.6749800785607571    -0.2759117560007784    20.6715948251518959
19     1          2.6544574526991931     2.6191827745531815    21.7321304073965571
20     1         -0.2713986187142872     2.6774536845490831    22.5831569879904563
21     1         -0.2419900751251859    -0.2010866392066905    23.4251045652102228
22     1          2.6327723070230546    -0.3053788233857639    24.1687469336490004
23     1          2.6136869043610544     2.5958255263179231    24.8572473551630360
24     1         -0.2959319450310430     2.6389947029465581    25.7094698044833052
25     1         -0.2816139892354024    -0.2294325462930002    26.6643129888579900
26     1          2.5915642361251838    -0.3241514516719436    27.4228097266939237
27     1          2.5814712711102286     2.5996191536817279    28.1446504883519104
28     1         -0.3564671634252722     2.6364492204489465    29.0570223349160557
29     1         -0.3298802981539514    -0.3099811351413910    29.8819157842118983
30     1          2.5858709336118819    -0.3094674974483143    30.4955604228403416
31     1          2.5400967997180759     2.6030704783467056    31.3110829008121314
32     1         -0.3551482588274572     2.5958595317183022    32.2327777239688373
33     1         -0.1248220207916104     5.7749020430145714     6.9519848625000717
34     1          2.7527439529029363     5.6564614714708172     7.6398973485533128
35     1          2.7350192873275274     8.6234703809661131     8.7824999220904214
36     1         -0.2057123415959947     8.5809420574079880     9.5198629798255077
37     1         -0.1719358884609724     5.7266112488684326    10.0602956551220064
38     1          2.7132281349948957     5.6510007998131311    11.0407640265531111
39     1          2.6947287048415469     8.5326985390772059    12.0384585070293237
40     1         -0.2133128796042079     8.5446157045462758    12.5276088117253224
41     1         -0.2151478230683951     5.6631396197501456    13.3124266602243253
42     1          2.6613988678598997     5.6719615461203334    14.4432545263017644
43     1          2.6498502458691524     8.5435618882988962    14.9847030900815383
44     1         -0.2721611250563403     8.4937825900633701    15.9645715273689763
45     1         -0.2215154139386439     5.6296216569755559    16.6521960450332571
46     1          2.6337698968976375     5.5880332702425193    17.7368329816094352
47     1          2.6291040228950058     8.5406042067234136    18.3392508526294229
48     1         -0.2880339071694198     8.4948783046744047    19.2285092364186276
49     1         -0.2660558353081739     5.5328798482277053    19.8077936468588867
50     1          2.6029479255121317     5.5191800302803795    20.7298124344531693
51     1          2.5977622763766779     8.4120091067449980    21.8205686992947250
52     1         -0.3023167092359174     8.4059881403450039    22.4983902930515214
53     1         -0.3073778935642044     5.4978532240511235    23.2815843198016701
54     1          2.5800340267646420     5.4825067562977869    24.0344016810775720
55     1          2.5573582753626400     8.4425591023531545    24.9947762582568487
56     1         -0.3548356569217859     8.3834473985877942    25.7612801171302337
57     1         -0.3636435003806164     5.5513503195187788    26.5212126973500020
58     1          2.5441023952305404     5.5478179857080931    27.2224677187583630
59     1          2.4974584046779862     8.3575780657501451    27.9600587514680399
60     1         -0.4172543371664657     8.3383639486947629    29.0029402716451159
61     1         -0.3791174207810465     5.4348260208971357    29.7189016786951861
62     1          2.5389825603813745     5.4188303932407198    30.5936856513782267
63     1          2.4490904176485557     8.3460265860929450    31.5685466383465361
64     1         -0.4361233438070699     8.3883027049859127    32.1613175683363934
ITEM: TIMESTEP energy, energy_weight, force_weight, nsims
4        -384922.4926890311762691    1    1   500
ITEM: NUMBER OF ATOMS
64        
ITEM: BOX BOUNDS xy xz yz pp pp pp
   -0.3600892756476902      5.7908924712567993     -0.0808524406836856
   -0.2811941566192837     11.5815011887825072     -0.2792368349640046
    0.0000000000000000     39.9980764978738250     -0.2811941566192837
ITEM: ATOMS id type x y z
1      1         -0.0463087055490857    -0.0723069099831576     7.1826585869133410
2      1          2.8264704853472629    -0.1005023786473660     8.0045870604834501
3      1          2.8415151161565384     2.7942109260506278     8.4618370713918445
4      1         -0.0921737080688879     2.8782689479299410     9.3997719662287373
5      1         -0.0830815124950450    -0.0146135072036737    10.1551956380058321
6      1          2.8452578371628601    -0.0325175972181136    11.0520725073176553
7      1          2.7647280001438848     2.8691580364614864    11.8914201432025894
8      1         -0.1138419148361497     2.7908717509427010    12.6973213875200006
9      1         -0.1143110139598727    -0.1087314196454913    13.6599830932478774
10     1          2.8178733090268135    -0.1407081610783261    14.2651019931612595
11     1          2.7541632149128987     2.7558236389102633    15.0768429566473596
12     1         -0.1326735161999739     2.8258462207746726    15.9966307241771677
13     1         -0.1168900129108062    -0.0933006195814173    16.8711406691113801
14     1          2.7883180113609183    -0.1787162802744989    17.3913556520427299
15     1          2.7671971414485039     2.7966913638113371    18.4526726134526129
16     1         -0.1441408632627385     2.7829969216948434    19.1378916613606407
17     1         -0.1670928776083029    -0.0882470439745019    19.9156102609776475
18     1          2.7493431415982594    -0.1214110514183853    20.8410057588324555
19     1          2.7043420816463932     2.7898269264428026    21.6056329880117097
20     1         -0.1517160932808874     2.6943380561779642    22.5476916845355326
21     1         -0.1541160398923768    -0.1285436670985101    23.2094038628857575
22     1          2.7125725363415105    -0.1861533607570458    24.2144555300860844
23     1          2.6829813073043147     2.7256056377861273    24.8616444068599307
24     1         -0.2203538798167805     2.6918525228453523    25.6378950770694694
25     1         -0.2084588381315810    -0.2153157961403290    26.6579020250723460
26     1          2.7169201927934643    -0.2428208144888594    27.4840862939818287
27     1          2.6890629499691343     2.6568940830231527    28.0575427165394977
28     1         -0.2290081620991084     2.6540816865846732    28.9132575653273598
29     1         -0.1964483639322066    -0.2640311572079224    29.8307974409579835
30     1          2.6547412583357901    -0.1657597137398121    30.5900689276941762
31     1          2.6409280729551878     2.6880061692324491    31.5187842658983080
32     1         -0.2515231174719414     2.6225112651170464    32.3090902601892012
33     1         -0.1009062157303657     5.6868093733291003     6.8456867918417048
34     1          2.8076782015594235     5.6876313807791687     7.9496457026059710
35     1          2.7774631875745137     8.6121710852901554     8.5407492765145001
36     1         -0.1504685381302278     8.6083692115674921     9.3067404401023310
37     1         -0.1327020401187397     5.6786017253488064    10.2584066746009448
38     1          2.7658607948979865     5.6845882191148966    11.0806191345141887
39     1          2.7361339628122452     8.5623916855437585    12.0704275347611745
40     1         -0.1386442753120753     8.5482967455819150    12.8445743061469226
41     1         -0.1237338068004638     5.6544196150331922    13.3489100527086126
42     1          2.7749505008698696     5.6664899356150151    14.1149372145652929
43     1          2.7139399060059493     8.5525068101554247    15.0502442357762760
44     1         -0.1727424193270170     8.6101746492867850    15.9358736459768977
45     1         -0.1658711066901257     5.6686268277330543    16.9316377598144179
46     1          2.7340905505587005     5.6545464338856357    17.4544646171410740
47     1          2.6831375415052441     8.6096689876024346    18.4335895311554765
48     1         -0.2116370708779589     8.5252287244393727    19.0519557940049573
49     1         -0.1518896458371827     5.6966649150037432    19.8837077951629446
50     1          2.7266882902284642     5.6678953661993416    20.9876187082354129
51     1          2.6699668118929769     8.5251938544205288    21.7935679502446220
52     1         -0.2210996322209078     8.4745879863837761    22.3264063261186969
53     1         -0.1917278474255119     5.6790400571996607    23.2758766662175738
54     1          2.7110225850481013     5.6486180347622339    24.1023369218548922
55     1          2.6323602126109318     8.4756812040499963    24.9708151568532273
56     1         -0.2524054160154643     8.4997008510267360    25.6967122485595922
57     1         -0.2001320652789448     5.6144105827910220    26.4390485497065839
58     1          2.6738481727590306     5.5425386608572653    27.2676087043600361
59     1          2.6130151879965702     8.4938723812086998    28.2047996349740693
60     1         -0.2364944174669212     8.5380588824642558    28.7539332272133805
61     1         -0.2606795013571770     5.5635279042627150    29.6306190675090768
62     1          2.6553367621571708     5.6268244989747016    30.3885546184902395
63     1          2.6238832971152926     8.4698213595772813    31.3761591247221894
64     1         -0.2787506988817505     8.4108488413735092    32.2068711758912372
ITEM: TIMESTEP energy, energy_weight, force_weight, nsims
5        -384922.6710235415957868    1    1   500
ITEM: NUMBER OF ATOMS
64        
ITEM: BOX BOUNDS xy xz yz pp pp pp
   -0.1800446378238423      5.7908924712567993     -0.0404262203418440
   -0.1401048524495811     11.5817154518039445     -0.1396184174819983
    0.0000000000000000     39.9995531754539826     -0.1401048524495811
ITEM: ATOMS id type x y z
1      1          0.0014433563499954    -0.0179848988502814     7.1718038856546897
2      1          2.8795772727675764     0.0260730177273054     7.9105116337436563
3      1          2.8814979383480064     2.8339182506807923     8.7035307751342543
4      1         -0.0203713044974546     2.8249961118867688     9.5240976087967884
5      1         -0.0175524067647156    -0.0699217333249322    10.3592562794577265
6      1          2.8798947383135385    -0.0054399574557987    11.0541285172217130
7      1          2.8183855814480796     2.8999901696969945    11.8118600528009257
8      1         -0.0536721369805385     2.8832555424135329    12.6359108475450412
9      1         -0.0407832326626793    -0.0244465795999536    13.6989989720656702
10     1          2.8688610940034835     0.0018534968518804    14.4081630501792439
11     1          2.8310095976524052     2.8126638444928305    15.2622975088666202
12     1         -0.0412612662318428     2.8245914711280782    16.1174799558471911
13     1         -0.0473546271092406    -0.0756680593077832    16.7586007940540007
14     1          2.8164387654446084    -0.0125733748178111    17.6560507688750761
15     1          2.8276740431407461     2.8779445955257326    18.2245164186939945
16     1         -0.0905927718907126     2.7931718725317971    19.1104425222452186
17     1         -0.0540475871850830    -0.0366343214216156    20.0668358386256394
18     1          2.8094910063669909    -0.0797655750300423    20.6295495526979273
19     1          2.8002488225561848     2.8476122044449559    21.7889406014437803
20     1         -0.0836899695885421     2.7978169154300598    22.2481354718979887
21     1         -0.0708367027032302    -0.0871796468479199    23.3242314511112774
22     1          2.7861444372196162    -0.1094423461695348    24.1231865261931127
23     1          2.8014853366047907     2.8601378279502838    24.7281317685080424
24     1         -0.0893702231265402     2.8116801679334769    25.8717989929006222
25     1         -0.1072136487932327    -0.1392400840772171    26.3568455745721302
26     1          2.7836352678810545    -0.1502236150490815    27.1882802868324305
27     1          2.7934687748762874     2.7672024850663428    28.0962341443173820
28     1         -0.1226132464197153     2.8190100702585097    28.9211449294547691
29     1         -0.0971838876257885    -0.0508641604731626    29.7082241371988118
30     1          2.7960187137001871    -0.0622902369976718    30.4616597207669777
31     1          2.7952387933673339     2.8119504936087578    31.5470235964510159
32     1         -0.1144879386368195     2.8010079881103702    32.2265480056615843
33     1         -0.0375319946474093     5.7646073096527308     7.1409522302904627
34     1          2.8294361609897933     5.8095510813882756     7.8406844137652669
35     1          2.8270080314898283     8.6592175230229174     8.6516633545316424
36     1         -0.0728004164452294     8.6042616580772648     9.4007749864015455
37     1         -0.0848859387428893     5.7121228843763845    10.3263566469709165
38     1          2.8142460238985971     5.8028172276443017    11.1016719861260569
39     1          2.8003290387816242     8.6963627029945041    11.6945933627564482
40     1         -0.1007525211768697     8.6133160930839665    12.5979192719389950
41     1         -0.0819507870132886     5.7787527405722310    13.5190889817931108
42     1          2.8167318164037609     5.7895328683802001    14.4631464359742239
43     1          2.8173539083736374     8.6845757638195007    15.1910023052866894
44     1         -0.1068883143492091     8.6872539516598160    15.8372910857637699
45     1         -0.1031887539039402     5.7300963313233364    16.8409798738188492
46     1          2.8067351727961714     5.7773722047740490    17.5729156975552101
47     1          2.8242048860871982     8.5708248991787279    18.2207604606508156
48     1         -0.0998325554055441     8.5952627046488868    19.2139373661313861
49     1         -0.1027784442761465     5.7633399985307463    19.9043056542078176
50     1          2.8031860206076669     5.6653022405086810    20.6971287977878546
51     1          2.7685499942436835     8.5537277276888890    21.6295503819502315
52     1         -0.0945284938576198     8.6126331104553717    22.3544542842383471
53     1         -0.0734371605549784     5.7173896906611779    23.1079778668235001
54     1          2.7772662600436964     5.7296308397762195    24.0839469645279891
55     1          2.7612079113148917     8.5921705118779439    25.0073046499408065
56     1         -0.1042751874712981     8.6397195190123313    25.5075070623104914
57     1         -0.1197679484396216     5.6553499234201254    26.5838190391109244
58     1          2.7818425225512815     5.6393058043288375    27.3023230128909731
59     1          2.7540065697016418     8.5371265769143339    28.3233036077837959
60     1         -0.1568456120912838     8.5596954766128555    28.8822213642597347
61     1         -0.1443108028678999     5.7138061940908225    29.9386775628638695
62     1          2.7450758732106926     5.7068102173178747    30.5277509824787820
63     1          2.7651895563701543     8.5632753002749169    31.3747215211924342
64     1         -0.1161406002700104     8.5984038942583201    32.3540945808721503
ITEM: TIMESTEP energy, energy_weight, force_weight, nsims
6        -384922.8093020606902428    1    1   500
ITEM: NUMBER OF ATOMS
64        
ITEM: BOX BOUNDS xy xz yz pp pp pp
    0.0000000000000000      5.7908924712568028      0.0000000000000007
    0.0000000000000000     11.5817849425136004      0.0000000000000024
    0.0000000000000000     40.0000396104215667      0.0000000000000024
ITEM: ATOMS id type x y z
1      1          0.0051637388166201     0.0463514615184341     7.0634629946617471
2      1          2.9060713651346624    -0.0139224636793951     7.9063558293444327
3      1          2.8761816736442700     2.8770022431074471     8.7268726418690488
4      1         -0.0017563776865314     2.9281578290200354     9.6042335106840362
5      1          0.0085392500381159     0.0379569837921004    10.2985341982219296
6      1          2.8849027577059831    -0.0393386907357410    10.8844907784710347
7      1          2.8863933334280847     2.8634596619741663    12.0014758845762106
8      1          0.0038266217450075     2.9500543516323523    12.7099205861203490
9      1         -0.0132153957086543    -0.0164843545086788    13.6743175411236511
10     1          2.9075833671589080     0.0151072802790156    14.4329982924145170
11     1          2.8947814411727002     2.8972414122944903    15.3190711698566542