ITEM: TIMESTEP energy, energy_weight, force_weight, nsims
1        -384921.9867229165392928    1    1   121
ITEM: NUMBER OF ATOMS
64        
ITEM: BOX BOUNDS xy xz yz pp pp pp
   -0.0509901936483700     48.2404859492636930     -0.0275935579629776
   -0.0234931166572907      7.8988489288464878     -0.0233966356853924
    0.0000000000000000      6.7029672821642405     -0.0234931166572907
ITEM: ATOMS id type x y z
1      1          8.0664409603579781     0.0362097652339397    -0.0222719493884471
2      1          9.9037093004235803     2.0152514381953086     1.7058187050328595
3      1          8.2728495093516692    -0.0525494914599248     3.3352141988948509
4      1         10.1035500845631887     1.9217886084501015     5.0576160449837850
5      1          7.8969216719043089     3.9554337581924663     0.0153678930878180
6      1          9.7192485737264978     5.8795748191980959     1.6732731176910391
7      1          8.0642790390480563     3.9455743201283329     3.3907161085846274
8      1         10.1097004275363318     5.9074369393175008     5.0367295989325607
9      1         12.1186265768320087    -0.0267151449861169     0.0035083330754848
10     1         14.0897453624229492     1.9818892613541963     1.7041865324996524
11     1         11.9280215619795431    -0.0221446376277111     3.3158855224400026
12     1         13.8711655424420623     1.9669585298454340     5.0140192754838599
13     1         12.1410158745455945     3.9872330851785649    -0.0349291625073579
14     1         13.7347313630987387     5.8892760403837165     1.6807516182877498
15     1         12.2092829241436700     3.9599888858037602     3.3562474399295539
16     1         13.9762346913855318     5.9114554623444677     5.0336918141602842
17     1         16.3339477983886106    -0.0370678225685176    -0.0137176225429491
18     1         18.2603055310266136     1.9973782793363066     1.6387829995406629
19     1         16.2218704911406455    -0.0161510753221592     3.3837450226111763
20     1         18.1108445337481569     1.9635342024482663     5.0611712988302449
21     1         15.9789106093803976     3.9417839650000501    -0.0191724973171744
22     1         18.1788668410248100     5.9192916251063092     1.6494373660356632
23     1         16.0868108699375192     3.9247345166596741     3.3373812682171748
24     1         18.2619374105615790     5.8624722140439509     5.0044273293030832
25     1         19.8676066669252407    -0.0173695909127962     0.0272757144645827
26     1         22.1592040072719314     1.9613730862093424     1.6606065204179332
27     1         20.1824562431144408    -0.0152470808256425     3.3158050868326163
28     1         22.3278406541807009     2.0011831536303757     4.9985541893704513
29     1         19.8851259265844469     3.9077363523119772    -0.0388865943907476
30     1         21.9545191407218709     5.8776652034253525     1.6882797208423483
31     1         19.7820285988787568     3.9463868884357907     3.3333112264834446
32     1         22.0165487729850433     5.8637090710436208     5.0303738453556130
33     1         24.3061407554624900    -0.0371221816413263    -0.0313370423408460
34     1         26.3259182927641078     1.9599245767790370     1.6578623256126153
35     1         24.2972429949156528     0.0317628144231782     3.3257509496858919
36     1         26.2505360011904116     1.9381015615585406     5.0088653639406040
37     1         23.9097283403355085     3.9662946486479203     0.0128965090508840
38     1         26.2821216427181312     5.9436717452470065     1.6385276164872125
39     1         23.9004758509297019     3.9130995439393712     3.3409780804607845
40     1         26.1046221494878985     5.9523298788018879     5.0381298487978050
41     1         27.9696440433449212    -0.0258241850254872     0.0303356190288907
42     1         29.8842039864752778     1.9800093267560923     1.6419876881982656
43     1         28.1344112127880663     0.0096381888207694     3.3507523473516363
44     1         30.0190468784865665     1.9203382242787348     5.0051499091761009
45     1         28.3212017025526315     3.9402548857862714     0.0163961282689019
46     1         30.2214760027255593     5.8725769301304620     1.7100931872686953
47     1         28.2666413710395723     3.8971267437547095     3.3125099081167044
48     1         29.9111596119047363     5.8734963125508521     5.0626647199407113
49     1         32.0133235865325787    -0.0097850520838323     0.0121578420563895
50     1         34.3528773901125248     2.0148892753037906     1.7014242396826724
51     1         32.3795499935463909     0.0320725082172945     3.3586377180623743
52     1         33.9620975807156498     1.9808567248921916     4.9878281011255314
53     1         32.2436127668638974     3.9895363560666155    -0.0331166801542606
54     1         34.0490273660790450     5.9571611220552487     1.6652000638964004
55     1         31.9880988611001236     3.9191429547213423     3.3846988548554289
56     1         34.1872926382506463     5.9057363063951405     5.0484517481156095
57     1         36.4286595955554802     0.0297636418139733     0.0250188253806780
58     1         38.3771918059916359     1.9356198502369668     1.6767841319534365
59     1         35.9917997368748814    -0.0014745654723241     3.3804619092363724
60     1         37.9299880545189225     1.9838231855849953     5.0097876922386302
61     1         36.3571757441234311     3.9022351069350472    -0.0328881089699389
62     1         38.0362914463680255     5.9199795353621640     1.6445019712258055
63     1         36.1154528561776971     3.9329508638683515     3.3752530333614028
64     1         38.2475305005452881     5.8995907586951439     4.9966867426856405
ITEM: TIMESTEP energy, energy_weight, force_weight, nsims
2        -384922.3829158100998029    1    1   121
ITEM: NUMBER OF ATOMS
64        
ITEM: BOX BOUNDS xy xz yz pp pp pp
   -0.0407632106271280     48.2404859492636930     -0.0220459020788136
   -0.0187655490342633      7.8988971693324377     -0.0187173085483144
    0.0000000000000000      6.7030155226501904     -0.0187655490342633
ITEM: ATOMS id type x y z
1      1          7.8080110572558787    -0.0366950712135447     0.0369450106561911
2      1          9.9522252876192603     2.0104889758843063     1.6601325029870113
3      1          8.0624940409496286     0.0119481228294606     3.3805954971856362
4      1         10.2445174199109026     1.9170504872897307     5.0030329220794716
5      1          7.7655356574085381     3.9197292350377335    -0.0218149640184650
6      1         10.2468362272456339     5.9582731620605633     1.6629899985043171
7      1          7.7637795757717436     3.9524725764078008     3.3204828539785090
8      1         10.1140880983202006     5.9300751364619195     5.0280686850565699
9      1         12.1139832742136786     0.0274854796309266     0.0066011296867059
10     1         14.1669185289150885     1.9838823054486494     1.6542164214867203
11     1         12.2487854806573999     0.0152352996451176     3.3406535682892677
12     1         14.3043696581277509     1.9948853473018218     5.0338165208672425
13     1         12.1397736882602452     3.9923907676227186     0.0356117808687359
14     1         13.9838073008006081     5.9480227691857408     1.6395696622681775
15     1         11.8083944340545290     3.8932970781587382     3.3131899730898655
16     1         14.1787168555419480     5.9504396810645197     4.9901188923735331
17     1         15.9304611266971410    -0.0146222352219971    -0.0201050247586370
18     1         18.1069853710149999     1.9640250578059404     1.6805311198255404
19     1         15.9535442050802576    -0.0113951914504486     3.3274459465034378
20     1         17.9982846125133698     1.9909018928070694     5.0098485482629025
21     1         16.1382946937411376     3.9422145098947574    -0.0185271349046051
22     1         17.9233456708854497     5.9252429413417618     1.6421798165126973
23     1         15.8976279492795047     3.9014743537287244     3.3141981066244717
24     1         17.9278659014594588     5.8971141645747736     5.0502382385961830
25     1         20.2369185021151345     0.0150825012778831     0.0001581911663345
26     1         22.2406310564151326     1.9486449903004519     1.6371250725070670
27     1         19.9811730222257395    -0.0477347915238441     3.3906232084075203
28     1         22.0023585940321773     1.9370135874243495     5.0074696480539131
29     1         20.3147412880304721     3.9504240157197255     0.0344514888817652
30     1         22.1239865662825501     5.9300747711367192     1.6548498564536107
31     1         19.9451462812604206     3.8984503481421235     3.3786375463514697
32     1         22.0015364374312590     5.9518463492106415     5.0085032530475058
33     1         24.1982946003297030     0.0003406284833120    -0.0308204653731456
34     1         26.0838856008719340     1.9397749988490589     1.6502180727274594
35     1         23.9315654924352330     0.0270756491960627     3.3855496959584266
36     1         26.0483198091780253     1.9313364580509127     4.9897629622492801
37     1         24.1356893646191040     3.9421856991376765    -0.0271398395496584
38     1         25.9997499269395966     5.9511512459847689     1.6709866960228388
39     1         24.2348059199817705     3.9002185948427579     3.3355820667448306
40     1         26.3806925606439648     5.8938111496984442     5.0540797367922137
41     1         27.9094998293592020     0.0080562680158515     0.0210957304528847
42     1         29.9081285713887688     1.9228148256592972     1.6972155957629689
43     1         27.8779547033851038    -0.0346087798613356     3.3233242622585601
44     1         30.2252660920921805     1.9427060932983133     5.0385877273162647
45     1         28.2093965015545187     3.9816738607096953     0.0211091364839300
46     1         30.2314117595684770     5.9347637047780406     1.6660827698664680
47     1         28.0807675526235059     3.9772883087396256     3.3437020997489690
48     1         29.9662402263354011     5.9338808385337831     5.0274995990386966
49     1         32.3843592178399788    -0.0270913446964507    -0.0229584984666292
50     1         34.1720476555773942     1.9611854459099287     1.6570980478599076
51     1         31.9071701157758767    -0.0278870903211492     3.3420431034071130
52     1         33.9945012483443278     1.9386210898212828     5.0001063855022823
53     1         32.1442221484725366     3.9455193412472891     0.0300261580337115
54     1         34.2104676490922373     5.9399700372891662     1.7066514307142036
55     1         32.0769450839957457     3.8967669148970949     3.3521794034804646
56     1         33.9168272345246677     5.9267708969526138     5.0346047954927062
57     1         36.2637733589642011    -0.0352467255403927     0.0381850685278813
58     1         38.1924982669659130     1.9952127255274412     1.6846018611524458
59     1         36.2117635509411429    -0.0211317998063402     3.3462204226808288
60     1         38.2583070432443080     1.9516463241032611     5.0308772485605600
61     1         35.9675472951756774     3.9229575403365819    -0.0099740870977035
62     1         38.3892757146744401     5.8896805576114577     1.6740513147197944
63     1         36.0103423930979503     3.9745523517353631     3.3786093936862747
64     1         38.0469881889412278     5.8673654721545372     5.0408794883234593
ITEM: TIMESTEP energy, energy_weight, force_weight, nsims
3        -384922.0175719321123324    1    1   121
ITEM: NUMBER OF ATOMS
64        
ITEM: BOX BOUNDS xy xz yz pp pp pp
   -0.0305844680918334     48.2404859492636930     -0.0165464866805977
   -0.0140862218971851      7.8988971693324368     -0.0140379814112357
    0.0000000000000000      6.7030155226501904     -0.0140862218971851
ITEM: ATOMS id type x y z
1      1          7.7604150665337368    -0.0166748144197355    -0.0164230583320452
2      1          9.7642998119004378     1.9893301148199971     1.6388236166405064
3      1          7.7937248926692480     0.0145099979522259     3.3705925871211853
4      1         10.1560916049002881     1.9947835816570474     5.0344358795015349
5      1          7.7996387162832423     3.9221437791046192     0.0037101190917869
6      1          9.9070430583923663     5.8737321428332496     1.6786321555279737
7      1          7.8559662665114782     3.8970206469922739     3.3677337510007748
8      1          9.9882105294846362     5.9110767553782919     5.0373429773337079
9      1         12.1576678365643325    -0.0347248838376101     0.0258173345870395
10     1         13.8968012349227656     1.9751903580821224     1.6876591065323265
11     1         12.2215287147903737    -0.0136761557882509     3.3791087683427121
12     1         14.0592303846015803     1.9917376661631221     5.0047897824479586
13     1         12.0560556617861945     3.9573134847775941    -0.0082540933145914
14     1         13.8907722758229646     5.9548630428131206     1.6960425680465052
15     1         11.8030722589099604     3.9183077256096275     3.3754650091045995
16     1         13.9384890378221673     5.9035328320620586     5.0608739133259721
17     1         15.9875453748338394    -0.0076762419135886     0.0297385986677898
18     1         17.9631385631980294     1.9895359374843862     1.6562749175537261
19     1         16.0420336320651593     0.0383175667052702     3.3463973822906268
20     1         17.8169358692896473     2.0017939421976174     5.0231171674899882
21     1         16.0782195831227135     3.9691246239955134    -0.0097187022062905
22     1         18.0865044192687918     5.8817689462761296     1.6442061381051944
23     1         15.7894221304259350     3.9073930572103794     3.3393679299120236
24     1         17.9428222684545027     5.9143776349618715     5.0516592778869844
25     1         20.1788875002247075    -0.0419240273065680     0.0104486605967071
26     1         22.0973918589085194     1.9482669743937104     1.6812657703268228
27     1         19.9314523867363462    -0.0443017248705938     3.3366183529446323
28     1         22.3310232595739677     1.9441040671195415     5.0240019655389778
29     1         20.1490718184413957     3.9217916106480359     0.0160557330814040
30     1         21.8615746275782925     5.9496321525419331     1.6378965895937239
31     1         20.3056871728277741     3.9798621148537445     3.3495947206949310
32     1         21.8305935058197278     5.9168763098428947     5.0086889265774843
33     1         24.2581188019730263     0.0409058737792173     0.0075864729685355
34     1         25.9429875539178987     1.9302726539004611     1.6605179263795637
35     1         23.9881452055583537     0.0334765829790122     3.3436471350216830
36     1         26.0352508230136550     1.9881991517845825     5.0306339290970881
37     1         24.1391723653515164     3.9092613510270677     0.0218075907013901
38     1         26.3294644586336553     5.9608269694396334     1.6470555900038732
39     1         24.3504198496694819     3.9791026835621617     3.3460012340732384
40     1         26.0820167913982175     5.9257461144830055     5.0003564079812772
41     1         27.8960695980496105     0.0187696078343818    -0.0189118879956052
42     1         30.2661518980366715     1.9906403624636702     1.6546956870965899
43     1         28.3550403160560940     0.0082221165681865     3.3677565412535517
44     1         29.9303941484984612     1.9354983848709721     5.0239228699558112
45     1         27.9374785072483043     3.9613073863911765     0.0044213090387401
46     1         30.1697529370530759     5.9340742953043639     1.6721912279122590
47     1         27.9056460137655229     3.9775984783103580     3.3250737493099720
48     1         30.0770604867777287     5.8697218999866054     5.0088618643779679
49     1         32.1021524177875150     0.0356992880103648    -0.0241616897529449
50     1         33.9203802657438018     1.9339436085388619     1.6690026034281342
51     1         32.3898036013167427     0.0152925821106708     3.3669273782333997
52     1         33.9008122765837570     1.9214356263550090     5.0451392546881033
53     1         32.4302087257255707     3.9870328052929462     0.0099211332750745
54     1         34.0347479109528663     5.8761177683738097     1.7157682021265603
55     1         32.3207547275504794     3.8981172603703724     3.3356671950419683
56     1         34.1006314908680537     5.9523508385018884     5.0132985903524103
57     1         36.1858186436219853    -0.0351972746475864     0.0153103577552853
58     1         37.9605429083456656     1.9407084475053129     1.6816759948768090
59     1         36.1832606261847545     0.0019080168659576     3.3785242653891370
60     1         38.4427053952535687     1.9742657482599615     5.0575773702919324
61     1         36.0962876221844624     3.9141054042568539     0.0046793751363621
62     1         38.3418265822562461     5.9670744221318719     1.6552225441166699
63     1         36.1573729818130545     3.9691351713339542     3.3271570465344116
64     1         37.9993171575092603     5.9202491904936307     5.0473794024757730
ITEM: TIMESTEP energy, energy_weight, force_weight, nsims
4        -384921.8306383483577520    1    1   121
ITEM: NUMBER OF ATOMS
64        
ITEM: BOX BOUNDS xy xz yz pp pp pp
   -0.0204057255565379     48.2404859492636930     -0.0110470712823818
   -0.0093586542741567      7.8988971693324377     -0.0093586542741562
    0.0000000000000000      6.7030637631361403     -0.0093586542741567
ITEM: ATOMS id type x y z
1      1          7.7556258188231606    -0.0097158893903877     0.0352527529430856
2      1         10.2321417396766137     1.9846848697695560     1.6949454171294966
3      1          8.1588655743659544     0.0124491362103817     3.3409939950260439
4      1          9.8753895595056882     1.9690762570765437     5.0224159810134132
5      1          7.8121241494456930     3.9118779151779179     0.0189240896160860
6      1         10.1181744325110383     5.8941239607734675     1.6757096350484249
7      1          7.7453929453443147     3.9868419589067168     3.3667960983694836
8      1         10.2425908210895518     5.9092534251871198     5.0527453336224752
9      1         12.1197050703503280     0.0231452406198513     0.0204443444775652
10     1         14.0287184998636913     1.9614716931635772     1.7061871253666521
11     1         12.2206116272036702    -0.0468315479194354     3.3151489920745201
12     1         14.2283146223930270     1.9764096711651769     5.0580025465319025
13     1         12.2299000081484959     3.9341747138340355    -0.0233581662954005
14     1         13.8708732901885998     5.9672374540862503     1.6549763885226683
15     1         11.9519658263580766     3.9549846152203969     3.3347641675645852
16     1         13.8617930296459253     5.9041931140268007     5.0348401096983864
17     1         15.8809691223742888    -0.0087304760440763     0.0270307749312228
18     1         18.2214726303276464     1.9431342126227942     1.7108497765202897
19     1         15.8360614791704926     0.0304326266759429     3.3454689603943137
20     1         17.9372566582622639     1.9476944612076983     5.0582525708102679
21     1         16.1805871124420300     3.9444060895181532     0.0225149208739980
22     1         18.2936258936560989     5.9539476548834571     1.7046943530666017
23     1         16.2311780807523114     3.9344032607678656     3.3302295449288235
24     1         18.0921169268739703     5.9216817415756129     4.9898095976440136
25     1         20.2138983142601916     0.0353236190177371    -0.0326352065435809
26     1         22.2328966906977925     1.9693456155193745     1.7150231040192181
27     1         20.1871769315332195    -0.0474483332807825     3.3597585517245676
28     1         21.8711633061366868     1.9380062294482872     5.0188177763853616
29     1         19.9379435584583575     3.9678206104601927     0.0152890181373372
30     1         22.1652845638986271     5.9237776791098646     1.6363371791165155
31     1         19.9982757792747030     3.9426196975880692     3.3647375874878245
32     1         21.9719012140292449     5.8800436715973730     5.0626651976855408
33     1         24.3450174246819913     0.0358815443290390     0.0277118062095574
34     1         26.1077689619746351     1.9636328788591522     1.6699450002121277
35     1         24.3982259865516795     0.0267214087237747     3.3807719863156227
36     1         25.8766030648164147     1.9796330580618640     5.0162464811258234
37     1         24.2466990811858132     3.9687596990563807     0.0300632409776656
38     1         26.1401870157507936     5.8789656762296074     1.6623470774366129
39     1         23.9955000955539575     3.9804156423886834     3.3315574218603010
40     1         26.0562613574638782     5.9250939771428230     5.0436191123089653
41     1         28.3816287856506690     0.0260582244570292     0.0120507680333662
42     1         30.3940144764896338     1.9766835558584348     1.7043705950868422
43     1         27.9086270424820810     0.0018824769537222     3.3581846723529822
44     1         30.3011419481513471     1.9428263056900461     5.0401951873387549
45     1         27.9014363792805042     3.9802953540808974    -0.0294163953245230
46     1         30.1252562597397500     5.9630846061883584     1.6852460838642385
47     1         28.1034514441933823     3.9400604689721308     3.3381371492501950
48     1         30.3184589321822671     5.9126937739009175     5.0241862601532574
49     1         32.0441768910183526     0.0326696068968240     0.0363741755106583
50     1         33.9923649420233147     1.9425284990318583     1.7067950932499685
51     1         32.4636894258563871     0.0065290754102933     3.3895322203476650
52     1         34.4091574336939132     1.9743848877977592     5.0497282846226881
53     1         32.0491656977376707     3.9944211800566651    -0.0075154750912282
54     1         34.0313564746281543     5.9381523478338956     1.6684019549338536
55     1         32.0188835152691240     3.9103791859931176     3.3797142428537996
56     1         34.0500948491985014     5.9621254878143688     5.0210599512141307
57     1         36.1683175589855566    -0.0163934214807632     0.0345469203288274
58     1         37.9730145067879974     1.9546845603678940     1.6849752800882076
59     1         36.3810660961891088    -0.0235554397278050     3.3759437694870353
60     1         38.2368454794453498     2.0033403716231666     5.0080727651730541
61     1         36.4602786686275877     3.9055281870499230     0.0102979168593061
62     1         38.4185386805159226     5.8854388957178765     1.6973712559053753
63     1         36.4762011903153152     3.8993064962147486     3.3576611630730815
64     1         38.4921401065076054     5.8877713708944208     4.9929285332130009
ITEM: TIMESTEP energy, energy_weight, force_weight, nsims
5        -384922.1181338234455325    1    1   121
ITEM: NUMBER OF ATOMS
64        
ITEM: BOX BOUNDS xy xz yz pp pp pp
   -0.0101787425352939     48.2404859492636930     -0.0054994153982152
   -0.0046793271370777      7.8988971693324377     -0.0046793271370787
    0.0000000000000000      6.7030637631361403     -0.0046793271370777
ITEM: ATOMS id type x y z
1      1          7.8567192696521797     0.0305235488628769     0.0058859602904098
2      1          9.9921515304800224     1.9376408507060778     1.6413825752110283
3      1          7.8511647835230356    -0.0352749764039206     3.3199517372608072
4      1         10.2955982061623832     2.0140491095453639     5.0462855910739410
5      1          8.2098576459874995     3.9793469553989560     0.0290537595749373
6      1          9.8187579860415077     5.9423646253717219     1.6454969157488410
7      1          7.8999699716890754     3.9695004527895765     3.3541702074652404
8      1          9.9880017486364636     5.9569888113280181     5.0329820204232441
9      1         12.1252251297242157     0.0398819612158211    -0.0096671585591949
10     1         14.2448613816130703     2.0093800000471238     1.6563994489595821
11     1         11.9221448288736109     0.0312216606645442     3.3791176701788808
12     1         14.1713940651709187     1.9590190262711742     5.0101440118758633
13     1         11.8263579193159902     3.9298859281397460     0.0399576333984309
14     1         14.3282669700702545     5.8802367707660563     1.6826486466560233
15     1         12.1193810177514507     3.9328066701517721     3.3782838090467462
16     1         13.9596220611278312     5.9248953974111229     5.0298664363861390
17     1         16.1915637534205459     0.0383964978607412     0.0215577233686221
18     1         18.2220316346483706     1.9424738746219048     1.6916146647455941
19     1         16.3038827948241902    -0.0356173415495509     3.3261004576507314
20     1         17.7860326060014629     1.9302903026098857     5.0413172802127049
21     1         16.2198869352502868     3.9236449068063819    -0.0266540627477345
22     1         18.0581670228443976     5.9496361742354695     1.6774309818227979
23     1         16.1892355868285307     3.9152459821131718     3.3645049911752438
24     1         18.1784744035379582     5.9641729693145322     5.0667681430149560
25     1         20.0777554355302641    -0.0032335077361670    -0.0072198699792739
26     1         22.2531525502815164     1.9732708125359910     1.7075592425189661
27     1         19.8734448137255413     0.0281712623511012     3.3211877822187290
28     1         22.0288397216278327     1.9722929166879195     4.9878094034170939
29     1         20.0449990423397431     3.9611446698186250    -0.0274255853868715
30     1         22.2087363347122775     5.9668176160323281     1.6653272595857032
31     1         20.1942553352985179     3.9019350901872372     3.3459287905684647
32     1         21.8918693191569957     5.9151637712699072     5.0029750851811894
33     1         24.3942544857261332    -0.0272603394739832    -0.0083996092015859
34     1         26.2065374853624888     1.9627867547205191     1.6835850646637334
35     1         23.9408507373480823     0.0373383791458266     3.3884382803415209
36     1         25.8920080129507149     2.0183985535454694     5.0209466694365341
37     1         23.9269423493423155     3.9158620497188004     0.0141856938419250
38     1         26.1705644773760078     5.9665408953725567     1.6917232543785570
39     1         23.9390197823042925     3.9737016986544837     3.3431094819496896
40     1         26.1561242235983968     5.9417872530614577     4.9992240506993388
41     1         27.8865876037889961     0.0201234819014205     0.0109548171080934
42     1         30.4006218017405452     1.9901378471827562     1.7136040654205624
43     1         28.0732814682316558    -0.0097097780154805     3.3646135808082072
44     1         30.0495159641157699     1.9704702205648703     5.0506445934391087
45     1         27.9594831645510169     3.9937787249631103    -0.0191633889924299
46     1         30.0434503458453932     5.8834543460879845     1.6436696605670102
47     1         27.8920622625702173     3.9539492186041003     3.3766361959737679
48     1         30.0949642191542353     5.9564500878382338     5.0612964320651086
49     1         32.1134038152275707     0.0098856634399061    -0.0330910148794742
50     1         33.9184806286940699     1.9662180663077060     1.6428069762606947
51     1         32.0104690226812565    -0.0453131868877773     3.3769452072132484
52     1         34.3905553803546411     1.9451684571121028     5.0155909214897880
53     1         32.3640900331823929     3.9118741582378167    -0.0337123888903169
54     1         34.4362556413182688     5.9120668919602313     1.6736893316302155
55     1         32.4451762016168956     3.9069369379693790     3.3636516911581964
56     1         34.0424540125501949     5.8953701824912406     4.9912909747356666
57     1         35.9240505654833697    -0.0018172331533383    -0.0083546986743729
58     1         38.1486628526310270     1.9418944507161335     1.6628183028191612
59     1         36.3876965598009718    -0.0432877164697104     3.3449863398033677
60     1         38.2027822226040641     1.9808357499530214     5.0169764447696279
61     1         36.4794732193048148     3.9658837371775344     0.0272747664522010
62     1         37.9949566794193956     5.8811534307732147     1.6832244398332767
63     1         36.4636272694654693     3.9073028312301386     3.3781115403080335
64     1         38.4687328268194833     5.9398013819992306     5.0615833231941707
ITEM: TIMESTEP energy, energy_weight, force_weight, nsims
6        -384922.3380878921598196    1    1   121
ITEM: NUMBER OF ATOMS
64        
ITEM: BOX BOUNDS xy xz yz pp pp pp
    0.0000000000000000     48.2404859492636930      0.0000000000000005
    0.0000000000000000      7.8988971693324377      0.0000000000000004
    0.0000000000000000      6.7030637631361394      0.0000000000000004
ITEM: ATOMS id type x y z
1      1          8.0848352983752800    -0.0315853201110096     0.0037222113076695
2      1         10.0415369451577430     1.9498751517281065     1.6409260965687584
3      1          8.1749822944686681     0.0251911628524352     3.3522806137904122
4      1          9.7268063667275566     1.9866808529783282     5.0561270292909768
5      1          8.2140426159417874     3.9327787520800594     0.0259938109670656
6      1          9.9971412259386359     5.9504540876611314     1.6404830240540151
7      1          8.0844783187792544     3.9072195006195334     3.3133927893685775
8      1          9.7532035606389940     5.9273940472649818     5.0189062568270346
9      1         12.2690848003023483    -0.0419763193372664    -0.0323456341890134
10     1         14.1070617871150823     1.9504201756327906     1.6517850598650390
11     1         11.8384033898445136    -0.0323167579888896     3.3623828011878345