ITEM: TIMESTEP energy, energy_weight, force_weight, nsims
1        -12018.6080692378909589    1    1   98
ITEM: NUMBER OF ATOMS
2         
ITEM: BOX BOUNDS xy xz yz pp pp pp
    0.0000000000000000      3.1216695095758999      0.0000000000000002
    0.0000000000000000      3.1216695095758995      0.0000000000000002
    0.0000000000000000      2.6490643541736567      0.0000000000000002
ITEM: ATOMS id type x y z
1      1          0.0000000000000000     0.0000000000000000     0.0000000000000000
2      1          1.5608347547879498     1.5608347547879498     1.3245321770868284
ITEM: TIMESTEP energy, energy_weight, force_weight, nsims
2        -12023.7697687654817855    1    1   98
ITEM: NUMBER OF ATOMS
2         
ITEM: BOX BOUNDS xy xz yz pp pp pp
    0.0000000000000000      3.3072519708002002      0.0000000000000002
    0.0000000000000000      3.3072519708001997      0.0000000000000002
    0.0000000000000000      2.8065505586809039      0.0000000000000002
ITEM: ATOMS id type x y z
1      1          0.0000000000000000     0.0000000000000000     0.0000000000000000
2      1          1.6536259854000999     1.6536259854000999     1.4032752793404519
ITEM: TIMESTEP energy, energy_weight, force_weight, nsims
3        -12024.1698037721289438    1    1   98
ITEM: NUMBER OF ATOMS
2         
ITEM: BOX BOUNDS xy xz yz pp pp pp
    0.0000000000000000      3.3272548708124003      0.0000000000000002
    0.0000000000000000      3.3272548708123999      0.0000000000000002
    0.0000000000000000      2.8235251196457569      0.0000000000000002
ITEM: ATOMS id type x y z
1      1          0.0000000000000000     0.0000000000000000     0.0000000000000000
2      1          1.6636274354062000     1.6636274354062000     1.4117625598228785
ITEM: TIMESTEP energy, energy_weight, force_weight, nsims
4        -12024.5432193665674276    1    1   98
ITEM: NUMBER OF ATOMS
2         
ITEM: BOX BOUNDS xy xz yz pp pp pp
    0.0000000000000000      3.3471519353748000      0.0000000000000002
    0.0000000000000000      3.3471519353747996      0.0000000000000002
    0.0000000000000000      2.8404098681187318      0.0000000000000002
ITEM: ATOMS id type x y z
1      1          0.0000000000000000     0.0000000000000000     0.0000000000000000
2      1          1.6735759676873998     1.6735759676873998     1.4202049340593659
ITEM: TIMESTEP energy, energy_weight, force_weight, nsims
5        -12024.8917098663769139    1    1   98
ITEM: NUMBER OF ATOMS
2         
ITEM: BOX BOUNDS xy xz yz pp pp pp
    0.0000000000000000      3.3668902467624999      0.0000000000000002
    0.0000000000000000      3.3668902467624995      0.0000000000000002
    0.0000000000000000      2.8571598978538915      0.0000000000000002
ITEM: ATOMS id type x y z
1      1          0.0000000000000000     0.0000000000000000     0.0000000000000000
2      1          1.6834451233812497     1.6834451233812497     1.4285799489269457
ITEM: TIMESTEP energy, energy_weight, force_weight, nsims
6        -12025.2168784309615148    1    1   98
ITEM: NUMBER OF ATOMS
2         
ITEM: BOX BOUNDS xy xz yz pp pp pp
    0.0000000000000000      3.3865227227004002      0.0000000000000002
    0.0000000000000000      3.3865227227003998      0.0000000000000002
    0.0000000000000000      2.8738201150971729      0.0000000000000002
ITEM: ATOMS id type x y z
1      1          0.0000000000000000     0.0000000000000000     0.0000000000000000
2      1          1.6932613613501999     1.6932613613501999     1.4369100575485865
ITEM: TIMESTEP energy, energy_weight, force_weight, nsims
7        -12025.5202742051023961    1    1   98
ITEM: NUMBER OF ATOMS
2         
ITEM: BOX BOUNDS xy xz yz pp pp pp
    0.0000000000000000      3.4060493631885000      0.0000000000000002
    0.0000000000000000      3.4060493631884996      0.0000000000000002
    0.0000000000000000      2.8903905198485766      0.0000000000000002
ITEM: ATOMS id type x y z
1      1          0.0000000000000000     0.0000000000000000     0.0000000000000000
2      1          1.7030246815942498     1.7030246815942498     1.4451952599242883
ITEM: TIMESTEP energy, energy_weight, force_weight, nsims
8        -12025.8033087799722125    1    1   98
ITEM: NUMBER OF ATOMS
2         
ITEM: BOX BOUNDS xy xz yz pp pp pp
    0.0000000000000000      3.4254172505019000      0.0000000000000002
    0.0000000000000000      3.4254172505018996      0.0000000000000002
    0.0000000000000000      2.9068262058621648      0.0000000000000002
ITEM: ATOMS id type x y z
1      1          0.0000000000000000     0.0000000000000000     0.0000000000000000
2      1          1.7127086252509498     1.7127086252509498     1.4534131029310824
ITEM: TIMESTEP energy, energy_weight, force_weight, nsims
9        -12026.0673132010142581    1    1   98
ITEM: NUMBER OF ATOMS
2         
ITEM: BOX BOUNDS xy xz yz pp pp pp
    0.0000000000000000      3.4447322200904003      0.0000000000000002
    0.0000000000000000      3.4447322200903998      0.0000000000000002
    0.0000000000000000      2.9232169856298138      0.0000000000000002
ITEM: ATOMS id type x y z
1      1          0.0000000000000000     0.0000000000000000     0.0000000000000000
2      1          1.7223661100451999     1.7223661100451999     1.4616084928149069
ITEM: TIMESTEP energy, energy_weight, force_weight, nsims
10       -12026.3135115728837263    1    1   98
ITEM: NUMBER OF ATOMS
2         
ITEM: BOX BOUNDS xy xz yz pp pp pp
    0.0000000000000000      3.4639413542291000      0.0000000000000002
    0.0000000000000000      3.4639413542290995      0.0000000000000002
    0.0000000000000000      2.9395179529055850      0.0000000000000002
ITEM: ATOMS id type x y z
1      1          0.0000000000000000     0.0000000000000000     0.0000000000000000
2      1          1.7319706771145498     1.7319706771145498     1.4697589764527925
ITEM: TIMESTEP energy, energy_weight, force_weight, nsims
11       -12026.5430050047270925    1    1   98
ITEM: NUMBER OF ATOMS
2         
ITEM: BOX BOUNDS xy xz yz pp pp pp
    0.0000000000000000      3.4829917351931003      0.0000000000000002
    0.0000000000000000      3.4829917351930999      0.0000000000000002
    0.0000000000000000      2.9556842014435407      0.0000000000000002
ITEM: ATOMS id type x y z
1      1          0.0000000000000000     0.0000000000000000     0.0000000000000000
2      1          1.7414958675965500     1.7414958675965500     1.4778421007217704
ITEM: TIMESTEP energy, energy_weight, force_weight, nsims
12       -12019.3524369790757191    1    1   98
ITEM: NUMBER OF ATOMS
2         
ITEM: BOX BOUNDS xy xz yz pp pp pp
    0.0000000000000000      3.1428365995359000      0.0000000000000002
    0.0000000000000000      3.1428365995358996      0.0000000000000002
    0.0000000000000000      2.6670268525491623      0.0000000000000002
ITEM: ATOMS id type x y z
1      1          0.0000000000000000     0.0000000000000000     0.0000000000000000
2      1          1.5714182997679498     1.5714182997679498     1.3335134262745811
ITEM: TIMESTEP energy, energy_weight, force_weight, nsims
13       -12026.7567969167721458    1    1   98
ITEM: NUMBER OF ATOMS
2         
ITEM: BOX BOUNDS xy xz yz pp pp pp
    0.0000000000000000      3.5019891984322000      0.0000000000000002
    0.0000000000000000      3.5019891984321996      0.0000000000000002
    0.0000000000000000      2.9718055437355568      0.0000000000000002
ITEM: ATOMS id type x y z
1      1          0.0000000000000000     0.0000000000000000     0.0000000000000000
2      1          1.7509945992160998     1.7509945992160998     1.4859027718677784
ITEM: TIMESTEP energy, energy_weight, force_weight, nsims
14       -12026.9557999792486953    1    1   98
ITEM: NUMBER OF ATOMS
2         
ITEM: BOX BOUNDS xy xz yz pp pp pp
    0.0000000000000000      3.5208808262215001      0.0000000000000002
    0.0000000000000000      3.5208808262214997      0.0000000000000002
    0.0000000000000000      2.9878370735356961      0.0000000000000002
ITEM: ATOMS id type x y z
1      1          0.0000000000000000     0.0000000000000000     0.0000000000000000
2      1          1.7604404131107498     1.7604404131107498     1.4939185367678480
ITEM: TIMESTEP energy, energy_weight, force_weight, nsims
15       -12027.1408735280438123    1    1   98
ITEM: NUMBER OF ATOMS
2         
ITEM: BOX BOUNDS xy xz yz pp pp pp
    0.0000000000000000      3.5396666185610002      0.0000000000000002
    0.0000000000000000      3.5396666185609997      0.0000000000000002
    0.0000000000000000      3.0037787908439575      0.0000000000000002
ITEM: ATOMS id type x y z
1      1          0.0000000000000000     0.0000000000000000     0.0000000000000000
2      1          1.7698333092804999     1.7698333092804999     1.5018893954219787
ITEM: TIMESTEP energy, energy_weight, force_weight, nsims
16       -12027.3128345853310748    1    1   98
ITEM: NUMBER OF ATOMS
2         
ITEM: BOX BOUNDS xy xz yz pp pp pp
    0.0000000000000000      3.5583465754507002      0.0000000000000002
    0.0000000000000000      3.5583465754506998      0.0000000000000002
    0.0000000000000000      3.0196306956603411      0.0000000000000002
ITEM: ATOMS id type x y z
1      1          0.0000000000000000     0.0000000000000000     0.0000000000000000
2      1          1.7791732877253499     1.7791732877253499     1.5098153478301706
ITEM: TIMESTEP energy, energy_weight, force_weight, nsims
17       -12027.4724418048281223    1    1   98
ITEM: NUMBER OF ATOMS
2         
ITEM: BOX BOUNDS xy xz yz pp pp pp
    0.0000000000000000      3.5769206968906002      0.0000000000000002
    0.0000000000000000      3.5769206968905998      0.0000000000000002
    0.0000000000000000      3.0353927879848475      0.0000000000000002
ITEM: ATOMS id type x y z
1      1          0.0000000000000000     0.0000000000000000     0.0000000000000000
2      1          1.7884603484452999     1.7884603484452999     1.5176963939924237
ITEM: TIMESTEP energy, energy_weight, force_weight, nsims
18       -12027.6204360167994309    1    1   98
ITEM: NUMBER OF ATOMS
2         
ITEM: BOX BOUNDS xy xz yz pp pp pp
    0.0000000000000000      3.5953889828807002      0.0000000000000002
    0.0000000000000000      3.5953889828806997      0.0000000000000002
    0.0000000000000000      3.0510650678174764      0.0000000000000002
ITEM: ATOMS id type x y z
1      1          0.0000000000000000     0.0000000000000000     0.0000000000000000
2      1          1.7976944914403499     1.7976944914403499     1.5255325339087382
ITEM: TIMESTEP energy, energy_weight, force_weight, nsims
19       -12027.7575015878555860    1    1   98
ITEM: NUMBER OF ATOMS
2         
ITEM: BOX BOUNDS xy xz yz pp pp pp
    0.0000000000000000      3.6138043511459004      0.0000000000000002
    0.0000000000000000      3.6138043511458999      0.0000000000000002
    0.0000000000000000      3.0666924414041663      0.0000000000000002
ITEM: ATOMS id type x y z
1      1          0.0000000000000000     0.0000000000000000     0.0000000000000000
2      1          1.8069021755729500     1.8069021755729500     1.5333462207020832
ITEM: TIMESTEP energy, energy_weight, force_weight, nsims
20       -12027.8842937684166827    1    1   98
ITEM: NUMBER OF ATOMS
2         
ITEM: BOX BOUNDS xy xz yz pp pp pp
    0.0000000000000000      3.6320609662364003      0.0000000000000002
    0.0000000000000000      3.6320609662363998      0.0000000000000002
    0.0000000000000000      3.0821850962530402      0.0000000000000002
ITEM: ATOMS id type x y z
1      1          0.0000000000000000     0.0000000000000000     0.0000000000000000
2      1          1.8160304831182001     1.8160304831181999     1.5410925481265201
ITEM: TIMESTEP energy, energy_weight, force_weight, nsims
21       -12028.0014235903818189    1    1   98
ITEM: NUMBER OF ATOMS
2         
ITEM: BOX BOUNDS xy xz yz pp pp pp
    0.0000000000000000      3.6502646636020000      0.0000000000000002
    0.0000000000000000      3.6502646636019995      0.0000000000000002
    0.0000000000000000      3.0976328448559749      0.0000000000000002
ITEM: ATOMS id type x y z
1      1          0.0000000000000000     0.0000000000000000     0.0000000000000000
2      1          1.8251323318010000     1.8251323318009998     1.5488164224279874
ITEM: TIMESTEP energy, energy_weight, force_weight, nsims
22       -12028.1094691598627833    1    1   98
ITEM: NUMBER OF ATOMS
2         
ITEM: BOX BOUNDS xy xz yz pp pp pp
    0.0000000000000000      3.6684154432426999      0.0000000000000002
    0.0000000000000000      3.6684154432426994      0.0000000000000002
    0.0000000000000000      3.1130356872129714      0.0000000000000002
ITEM: ATOMS id type x y z
1      1          0.0000000000000000     0.0000000000000000     0.0000000000000000
2      1          1.8342077216213499     1.8342077216213497     1.5565178436064857
ITEM: TIMESTEP energy, energy_weight, force_weight, nsims
23       -12020.0468835092597146    1    1   98
ITEM: NUMBER OF ATOMS
2         
ITEM: BOX BOUNDS xy xz yz pp pp pp
    0.0000000000000000      3.1638449363212002      0.0000000000000002
    0.0000000000000000      3.1638449363211998      0.0000000000000002
    0.0000000000000000      2.6848546321868518      0.0000000000000002
ITEM: ATOMS id type x y z
1      1          0.0000000000000000     0.0000000000000000     0.0000000000000000
2      1          1.5819224681605999     1.5819224681605999     1.3424273160934259
ITEM: TIMESTEP energy, energy_weight, force_weight, nsims
24       -12028.2089650447360327    1    1   98
ITEM: NUMBER OF ATOMS
2         
ITEM: BOX BOUNDS xy xz yz pp pp pp
    0.0000000000000000      3.6864074697087004      0.0000000000000002
    0.0000000000000000      3.6864074697086999      0.0000000000000002
    0.0000000000000000      3.1283038108321515      0.0000000000000002
ITEM: ATOMS id type x y z
1      1          0.0000000000000000     0.0000000000000000     0.0000000000000000
2      1          1.8432037348543502     1.8432037348543500     1.5641519054160757
ITEM: TIMESTEP energy, energy_weight, force_weight, nsims
25       -12028.3004161524568190    1    1   98
ITEM: NUMBER OF ATOMS
2         
ITEM: BOX BOUNDS xy xz yz pp pp pp
    0.0000000000000000      3.7043465784498002      0.0000000000000002
    0.0000000000000000      3.7043465784497998      0.0000000000000002
    0.0000000000000000      3.1435270282053929      0.0000000000000002
ITEM: ATOMS id type x y z
1      1          0.0000000000000000     0.0000000000000000     0.0000000000000000
2      1          1.8521732892249001     1.8521732892248999     1.5717635141026964
ITEM: TIMESTEP energy, energy_weight, force_weight, nsims
26       -12028.3842963694896753    1    1   98
ITEM: NUMBER OF ATOMS
2         
ITEM: BOX BOUNDS xy xz yz pp pp pp
    0.0000000000000000      3.7222327694660002      0.0000000000000002
    0.0000000000000000      3.7222327694659998      0.0000000000000002
    0.0000000000000000      3.1587053393326947      0.0000000000000002
ITEM: ATOMS id type x y z
1      1          0.0000000000000000     0.0000000000000000     0.0000000000000000
2      1          1.8611163847330001     1.8611163847329999     1.5793526696663474
ITEM: TIMESTEP energy, energy_weight, force_weight, nsims
27       -12028.4610389012595988    1    1   98
ITEM: NUMBER OF ATOMS
2         
ITEM: BOX BOUNDS xy xz yz pp pp pp
    0.0000000000000000      3.7399602073075000      0.0000000000000002
    0.0000000000000000      3.7399602073074996      0.0000000000000002
    0.0000000000000000      3.1737489317221810      0.0000000000000002
ITEM: ATOMS id type x y z
1      1          0.0000000000000000     0.0000000000000000     0.0000000000000000
2      1          1.8699801036537500     1.8699801036537498     1.5868744658610905
ITEM: TIMESTEP energy, energy_weight, force_weight, nsims
28       -12028.5310709666864568    1    1   98
ITEM: NUMBER OF ATOMS
2         
ITEM: BOX BOUNDS xy xz yz pp pp pp
    0.0000000000000000      3.7576876451490002      0.0000000000000002
    0.0000000000000000      3.7576876451489998      0.0000000000000002
    0.0000000000000000      3.1887925241116672      0.0000000000000002
ITEM: ATOMS id type x y z
1      1          0.0000000000000000     0.0000000000000000     0.0000000000000000
2      1          1.8788438225745001     1.8788438225744999     1.5943962620558336
ITEM: TIMESTEP energy, energy_weight, force_weight, nsims
29       -12028.5947629128713743    1    1   98
ITEM: NUMBER OF ATOMS
2         
ITEM: BOX BOUNDS xy xz yz pp pp pp
    0.0000000000000000      3.7752563298158002      0.0000000000000002
    0.0000000000000000      3.7752563298157997      0.0000000000000002
    0.0000000000000000      3.2037013977633371      0.0000000000000002
ITEM: ATOMS id type x y z
1      1          0.0000000000000000     0.0000000000000000     0.0000000000000000
2      1          1.8876281649079001     1.8876281649078999     1.6018506988816685
ITEM: TIMESTEP energy, energy_weight, force_weight, nsims
30       -12028.6524929782208346    1    1   98
ITEM: NUMBER OF ATOMS
2         
ITEM: BOX BOUNDS xy xz yz pp pp pp
    0.0000000000000000      3.7927720967577003      0.0000000000000002
    0.0000000000000000      3.7927720967576999      0.0000000000000002
    0.0000000000000000      3.2185653651690682      0.0000000000000002
ITEM: ATOMS id type x y z
1      1          0.0000000000000000     0.0000000000000000     0.0000000000000000
2      1          1.8963860483788502     1.8963860483788499     1.6092826825845341
ITEM: TIMESTEP energy, energy_weight, force_weight, nsims
31       -12028.7045919172542199    1    1   98
ITEM: NUMBER OF ATOMS
2         
ITEM: BOX BOUNDS xy xz yz pp pp pp
    0.0000000000000000      3.8102349459747002      0.0000000000000002
    0.0000000000000000      3.8102349459746998      0.0000000000000002
    0.0000000000000000      3.2333844263288603      0.0000000000000002
ITEM: ATOMS id type x y z
1      1          0.0000000000000000     0.0000000000000000     0.0000000000000000
2      1          1.9051174729873501     1.9051174729873499     1.6166922131644301
ITEM: TIMESTEP energy, energy_weight, force_weight, nsims
32       -12028.7513738855413976    1    1   98
ITEM: NUMBER OF ATOMS
2         
ITEM: BOX BOUNDS xy xz yz pp pp pp
    0.0000000000000000      3.8275919597419001      0.0000000000000002
    0.0000000000000000      3.8275919597418997      0.0000000000000002
    0.0000000000000000      3.2481136749967749      0.0000000000000002
ITEM: ATOMS id type x y z
1      1          0.0000000000000000     0.0000000000000000     0.0000000000000000
2      1          1.9137959798709501     1.9137959798709498     1.6240568374983875
ITEM: TIMESTEP energy, energy_weight, force_weight, nsims
33       -12028.7931428343745210    1    1   98
ITEM: NUMBER OF ATOMS
2         
ITEM: BOX BOUNDS xy xz yz pp pp pp
    0.0000000000000000      3.8448431380593000      0.0000000000000002
    0.0000000000000000      3.8448431380592996      0.0000000000000002
    0.0000000000000000      3.2627531111728119      0.0000000000000002
ITEM: ATOMS id type x y z
1      1          0.0000000000000000     0.0000000000000000     0.0000000000000000
2      1          1.9224215690296500     1.9224215690296498     1.6313765555864059
ITEM: TIMESTEP energy, energy_weight, force_weight, nsims
34       -12020.6948619546110422    1    1   98
ITEM: NUMBER OF ATOMS
2         
ITEM: BOX BOUNDS xy xz yz pp pp pp
    0.0000000000000000      3.1847474376567000      0.0000000000000002
    0.0000000000000000      3.1847474376566995      0.0000000000000002
    0.0000000000000000      2.7025925993326636      0.0000000000000002
ITEM: ATOMS id type x y z
1      1          0.0000000000000000     0.0000000000000000     0.0000000000000000
2      1          1.5923737188283498     1.5923737188283498     1.3512962996663318
ITEM: TIMESTEP energy, energy_weight, force_weight, nsims
35       -12028.8301730546299950    1    1   98
ITEM: NUMBER OF ATOMS
2         
ITEM: BOX BOUNDS xy xz yz pp pp pp
    0.0000000000000000      3.8620943163767003      0.0000000000000002
    0.0000000000000000      3.8620943163766999      0.0000000000000002
    0.0000000000000000      3.2773925473488497      0.0000000000000002
ITEM: ATOMS id type x y z
1      1          0.0000000000000000     0.0000000000000000     0.0000000000000000
2      1          1.9310471581883502     1.9310471581883499     1.6386962736744248
ITEM: TIMESTEP energy, energy_weight, force_weight, nsims
36       -12028.8627279526208440    1    1   98
ITEM: NUMBER OF ATOMS
2         
ITEM: BOX BOUNDS xy xz yz pp pp pp
    0.0000000000000000      3.8791867415193999      0.0000000000000002
    0.0000000000000000      3.8791867415193995      0.0000000000000002
    0.0000000000000000      3.2918972647870701      0.0000000000000002
ITEM: ATOMS id type x y z
1      1          0.0000000000000000     0.0000000000000000     0.0000000000000000
2      1          1.9395933707597000     1.9395933707596997     1.6459486323935351
ITEM: TIMESTEP energy, energy_weight, force_weight, nsims
37       -12028.8910561044503993    1    1   98
ITEM: NUMBER OF ATOMS
2         
ITEM: BOX BOUNDS xy xz yz pp pp pp
    0.0000000000000000      3.8962262489372002      0.0000000000000002
    0.0000000000000000      3.8962262489371997      0.0000000000000002
    0.0000000000000000      3.3063570759793528      0.0000000000000002
ITEM: ATOMS id type x y z
1      1          0.0000000000000000     0.0000000000000000     0.0000000000000000
2      1          1.9481131244686001     1.9481131244685999     1.6531785379896764
ITEM: TIMESTEP energy, energy_weight, force_weight, nsims
38       -12028.9153964261768124    1    1   98
ITEM: NUMBER OF ATOMS
2         
ITEM: BOX BOUNDS xy xz yz pp pp pp
    0.0000000000000000      3.9132128386301002      0.0000000000000002
    0.0000000000000000      3.9132128386300997      0.0000000000000002
    0.0000000000000000      3.3207719809256959      0.0000000000000002
ITEM: ATOMS id type x y z
1      1          0.0000000000000000     0.0000000000000000     0.0000000000000000
2      1          1.9566064193150501     1.9566064193150499     1.6603859904628480
ITEM: TIMESTEP energy, energy_weight, force_weight, nsims
39       -12028.9359745002730051    1    1   98
ITEM: NUMBER OF ATOMS
2         
ITEM: BOX BOUNDS xy xz yz pp pp pp
    0.0000000000000000      3.9301465105980999      0.0000000000000002
    0.0000000000000000      3.9301465105980995      0.0000000000000002
    0.0000000000000000      3.3351419796261004      0.0000000000000002
ITEM: ATOMS id type x y z
1      1          0.0000000000000000     0.0000000000000000     0.0000000000000000
2      1          1.9650732552990500     1.9650732552990497     1.6675709898130502
ITEM: TIMESTEP energy, energy_weight, force_weight, nsims
40       -12028.9529931876986666    1    1   98
ITEM: NUMBER OF ATOMS
2         
ITEM: BOX BOUNDS xy xz yz pp pp pp
    0.0000000000000000      3.9469743471163001      0.0000000000000002
    0.0000000000000000      3.9469743471162997      0.0000000000000002
    0.0000000000000000      3.3494221658346275      0.0000000000000002
ITEM: ATOMS id type x y z
1      1          0.0000000000000000     0.0000000000000000     0.0000000000000000
2      1          1.9734871735581501     1.9734871735581498     1.6747110829173137
ITEM: TIMESTEP energy, energy_weight, force_weight, nsims
41       -12028.9666656897425128    1    1   98
ITEM: NUMBER OF ATOMS
2         
ITEM: BOX BOUNDS xy xz yz pp pp pp
    0.0000000000000000      3.9636963481847003      0.0000000000000002
    0.0000000000000000      3.9636963481846998      0.0000000000000002
    0.0000000000000000      3.3636125395512777      0.0000000000000002
ITEM: ATOMS id type x y z
1      1          0.0000000000000000     0.0000000000000000     0.0000000000000000
2      1          1.9818481740923501     1.9818481740923499     1.6818062697756389
ITEM: TIMESTEP energy, energy_weight, force_weight, nsims
42       -12028.9771763636108517    1    1   98
ITEM: NUMBER OF ATOMS
2         
ITEM: BOX BOUNDS xy xz yz pp pp pp
    0.0000000000000000      3.9804183492531000      0.0000000000000002
    0.0000000000000000      3.9804183492530996      0.0000000000000002
    0.0000000000000000      3.3778029132679270      0.0000000000000002
ITEM: ATOMS id type x y z
1      1          0.0000000000000000     0.0000000000000000     0.0000000000000000
2      1          1.9902091746265500     1.9902091746265498     1.6889014566339635
ITEM: TIMESTEP energy, energy_weight, force_weight, nsims
43       -12028.9847018112686783    1    1   98
ITEM: NUMBER OF ATOMS
2         
ITEM: BOX BOUNDS xy xz yz pp pp pp
    0.0000000000000000      3.9970345148717001      0.0000000000000002
    0.0000000000000000      3.9970345148716997      0.0000000000000002
    0.0000000000000000      3.3919034744926990      0.0000000000000002
ITEM: ATOMS id type x y z
1      1          0.0000000000000000     0.0000000000000000     0.0000000000000000
2      1          1.9985172574358501     1.9985172574358498     1.6959517372463495
ITEM: TIMESTEP energy, energy_weight, force_weight, nsims
44       -12028.9894168659338902    1    1   98
ITEM: NUMBER OF ATOMS
2         
ITEM: BOX BOUNDS xy xz yz pp pp pp
    0.0000000000000000      4.0135977627654009      0.0000000000000002
    0.0000000000000000      4.0135977627654000      0.0000000000000002
    0.0000000000000000      3.4059591294715323      0.0000000000000002
ITEM: ATOMS id type x y z
1      1          0.0000000000000000     0.0000000000000000     0.0000000000000000
2      1          2.0067988813827000     2.0067988813827000     1.7029795647357662
ITEM: TIMESTEP energy, energy_weight, force_weight, nsims
45       -12021.2995565927067219    1    1   98
ITEM: NUMBER OF ATOMS
2         
ITEM: BOX BOUNDS xy xz yz pp pp pp
    0.0000000000000000      3.2054911858175004      0.0000000000000002
    0.0000000000000000      3.2054911858174999      0.0000000000000002
    0.0000000000000000      2.7201958477406598      0.0000000000000002
ITEM: ATOMS id type x y z
1      1          0.0000000000000000     0.0000000000000000     0.0000000000000000
2      1          1.6027455929087500     1.6027455929087500     1.3600979238703299
ITEM: TIMESTEP energy, energy_weight, force_weight, nsims
46       -12028.9914749998788466    1    1   98
ITEM: NUMBER OF ATOMS
2         
ITEM: BOX BOUNDS xy xz yz pp pp pp
    0.0000000000000000      4.0300551752093003      0.0000000000000002
    0.0000000000000000      4.0300551752092995      0.0000000000000002
    0.0000000000000000      3.4199249719584879      0.0000000000000002
ITEM: ATOMS id type x y z
1      1          0.0000000000000000     0.0000000000000000     0.0000000000000000
2      1          2.0150275876046497     2.0150275876046497     1.7099624859792439
ITEM: TIMESTEP energy, energy_weight, force_weight, nsims
47       -12028.9910324065222085    1    1   98
ITEM: NUMBER OF ATOMS
2         
ITEM: BOX BOUNDS xy xz yz pp pp pp
    0.0000000000000000      4.0464596699283009      0.0000000000000002
    0.0000000000000000      4.0464596699283000      0.0000000000000002
    0.0000000000000000      3.4338459081995052      0.0000000000000002
ITEM: ATOMS id type x y z
1      1          0.0000000000000000     0.0000000000000000     0.0000000000000000
2      1          2.0232298349641500     2.0232298349641500     1.7169229540997526
ITEM: TIMESTEP energy, energy_weight, force_weight, nsims
48       -12028.9882263673516718    1    1   98
ITEM: NUMBER OF ATOMS
2         
ITEM: BOX BOUNDS xy xz yz pp pp pp
    0.0000000000000000      4.0628112469224007      0.0000000000000002
    0.0000000000000000      4.0628112469223998      0.0000000000000002
    0.0000000000000000      3.4477219381945834      0.0000000000000002
ITEM: ATOMS id type x y z
1      1          0.0000000000000000     0.0000000000000000     0.0000000000000000
2      1          2.0314056234611999     2.0314056234611999     1.7238609690972917
ITEM: TIMESTEP energy, energy_weight, force_weight, nsims
49       -12028.9831974292319501    1    1   98
ITEM: NUMBER OF ATOMS
2         
ITEM: BOX BOUNDS xy xz yz pp pp pp
    0.0000000000000000      4.0791099061916007      0.0000000000000002
    0.0000000000000000      4.0791099061915999      0.0000000000000002
    0.0000000000000000      3.4615530619437229      0.0000000000000002
ITEM: ATOMS id type x y z
1      1          0.0000000000000000     0.0000000000000000     0.0000000000000000
2      1          2.0395549530957999     2.0395549530957999     1.7307765309718615
ITEM: TIMESTEP energy, energy_weight, force_weight, nsims
50       -12028.9669252864605369    1    1   98
ITEM: NUMBER OF ATOMS
2         
ITEM: BOX BOUNDS xy xz yz pp pp pp
    0.0000000000000000      4.1114955538304008      0.0000000000000003
    0.0000000000000000      4.1114955538303999      0.0000000000000002
    0.0000000000000000      3.4890356844582464      0.0000000000000002
ITEM: ATOMS id type x y z
1      1          0.0000000000000000     0.0000000000000000     0.0000000000000000
2      1          2.0557477769151999     2.0557477769151999     1.7445178422291232
ITEM: TIMESTEP energy, energy_weight, force_weight, nsims
51       -12028.9559174603837164    1    1   98
ITEM: NUMBER OF ATOMS
2         
ITEM: BOX BOUNDS xy xz yz pp pp pp
    0.0000000000000000      4.1275825422000008      0.0000000000000003
    0.0000000000000000      4.1275825421999999      0.0000000000000002
    0.0000000000000000      3.5026871832236308      0.0000000000000002
ITEM: ATOMS id type x y z
1      1          0.0000000000000000     0.0000000000000000     0.0000000000000000
2      1          2.0637912710999999     2.0637912710999999     1.7513435916118154
ITEM: TIMESTEP energy, energy_weight, force_weight, nsims
52       -12028.9431430704698869    1    1   98
ITEM: NUMBER OF ATOMS
2         
ITEM: BOX BOUNDS xy xz yz pp pp pp
    0.0000000000000000      4.1436166128447010      0.0000000000000003
    0.0000000000000000      4.1436166128447001      0.0000000000000002
    0.0000000000000000      3.5162937757430770      0.0000000000000002
ITEM: ATOMS id type x y z