ITEM: TIMESTEP energy, energy_weight, force_weight, nsims
1        -24037.3762469291978050    1    1   99
ITEM: NUMBER OF ATOMS
4         
ITEM: BOX BOUNDS xy xz yz pp pp pp
    0.0000000000000000      3.7315462890484001      0.0000000000000002
    0.0000000000000000      3.7315462890484001      0.0000000000000002
    0.0000000000000000      3.7315462890483997      0.0000000000000002
ITEM: ATOMS id type x y z
1      1          0.0000000000000000     0.0000000000000000     0.0000000000000000
2      1          1.8657731445242001     1.8657731445241998     0.0000000000000000
3      1          0.0000000000000002     1.8657731445242001     1.8657731445241998
4      1          1.8657731445242001     0.0000000000000001     1.8657731445241998
ITEM: TIMESTEP energy, energy_weight, force_weight, nsims
2        -24047.6038568358853809    1    1   99
ITEM: NUMBER OF ATOMS
4         
ITEM: BOX BOUNDS xy xz yz pp pp pp
    0.0000000000000000      3.9534303095541001      0.0000000000000002
    0.0000000000000000      3.9534303095541001      0.0000000000000002
    0.0000000000000000      3.9534303095540997      0.0000000000000002
ITEM: ATOMS id type x y z
1      1          0.0000000000000000     0.0000000000000000     0.0000000000000000
2      1          1.9767151547770501     1.9767151547770498     0.0000000000000000
3      1          0.0000000000000002     1.9767151547770501     1.9767151547770498
4      1          1.9767151547770501     0.0000000000000001     1.9767151547770498
ITEM: TIMESTEP energy, energy_weight, force_weight, nsims
3        -24048.4002202488591138    1    1   99
ITEM: NUMBER OF ATOMS
4         
ITEM: BOX BOUNDS xy xz yz pp pp pp
    0.0000000000000000      3.9772962034840003      0.0000000000000002
    0.0000000000000000      3.9772962034840003      0.0000000000000002
    0.0000000000000000      3.9772962034839998      0.0000000000000002
ITEM: ATOMS id type x y z
1      1          0.0000000000000000     0.0000000000000000     0.0000000000000000
2      1          1.9886481017420001     1.9886481017419999     0.0000000000000000
3      1          0.0000000000000002     1.9886481017420001     1.9886481017419999
4      1          1.9886481017420001     0.0000000000000001     1.9886481017419999
ITEM: TIMESTEP energy, energy_weight, force_weight, nsims
4        -24049.1440191358087759    1    1   99
ITEM: NUMBER OF ATOMS
4         
ITEM: BOX BOUNDS xy xz yz pp pp pp
    0.0000000000000000      4.0010562619641004      0.0000000000000002
    0.0000000000000000      4.0010562619640995      0.0000000000000002
    0.0000000000000000      4.0010562619640995      0.0000000000000002
ITEM: ATOMS id type x y z
1      1          0.0000000000000000     0.0000000000000000     0.0000000000000000
2      1          2.0005281309820497     2.0005281309820497     0.0000000000000000
3      1          0.0000000000000002     2.0005281309820497     2.0005281309820497
4      1          2.0005281309820497     0.0000000000000001     2.0005281309820497
ITEM: TIMESTEP energy, energy_weight, force_weight, nsims
5        -24049.8385731510061305    1    1   99
ITEM: NUMBER OF ATOMS
4         
ITEM: BOX BOUNDS xy xz yz pp pp pp
    0.0000000000000000      4.0246575672695011      0.0000000000000002
    0.0000000000000000      4.0246575672695002      0.0000000000000002
    0.0000000000000000      4.0246575672695002      0.0000000000000002
ITEM: ATOMS id type x y z
1      1          0.0000000000000000     0.0000000000000000     0.0000000000000000
2      1          2.0123287836347501     2.0123287836347501     0.0000000000000000
3      1          0.0000000000000002     2.0123287836347501     2.0123287836347501
4      1          2.0123287836347501     0.0000000000000001     2.0123287836347501
ITEM: TIMESTEP energy, energy_weight, force_weight, nsims
6        -24050.4870003122778144    1    1   99
ITEM: NUMBER OF ATOMS
4         
ITEM: BOX BOUNDS xy xz yz pp pp pp
    0.0000000000000000      4.0481001194002006      0.0000000000000002
    0.0000000000000000      4.0481001194001998      0.0000000000000002
    0.0000000000000000      4.0481001194001998      0.0000000000000002
ITEM: ATOMS id type x y z
1      1          0.0000000000000000     0.0000000000000000     0.0000000000000000
2      1          2.0240500597000999     2.0240500597000999     0.0000000000000000
3      1          0.0000000000000002     2.0240500597000999     2.0240500597000999
4      1          2.0240500597000999     0.0000000000000001     2.0240500597000999
ITEM: TIMESTEP energy, energy_weight, force_weight, nsims
7        -24051.0921763199730776    1    1   99
ITEM: NUMBER OF ATOMS
4         
ITEM: BOX BOUNDS xy xz yz pp pp pp
    0.0000000000000000      4.0714368360811006      0.0000000000000002
    0.0000000000000000      4.0714368360810997      0.0000000000000002
    0.0000000000000000      4.0714368360810997      0.0000000000000002
ITEM: ATOMS id type x y z
1      1          0.0000000000000000     0.0000000000000000     0.0000000000000000
2      1          2.0357184180405499     2.0357184180405499     0.0000000000000000
3      1          0.0000000000000002     2.0357184180405499     2.0357184180405499
4      1          2.0357184180405499     0.0000000000000001     2.0357184180405499
ITEM: TIMESTEP energy, energy_weight, force_weight, nsims
8        -24051.6567693875294935    1    1   99
ITEM: NUMBER OF ATOMS
4         
ITEM: BOX BOUNDS xy xz yz pp pp pp
    0.0000000000000000      4.0946677173122010      0.0000000000000003
    0.0000000000000000      4.0946677173122001      0.0000000000000003
    0.0000000000000000      4.0946677173122001      0.0000000000000003
ITEM: ATOMS id type x y z
1      1          0.0000000000000000     0.0000000000000000     0.0000000000000000
2      1          2.0473338586561001     2.0473338586561001     0.0000000000000000
3      1          0.0000000000000003     2.0473338586561001     2.0473338586561001
4      1          2.0473338586561001     0.0000000000000001     2.0473338586561001
ITEM: TIMESTEP energy, energy_weight, force_weight, nsims
9        -24052.1833217396342661    1    1   99
ITEM: NUMBER OF ATOMS
4         
ITEM: BOX BOUNDS xy xz yz pp pp pp
    0.0000000000000000      4.1177398453686003      0.0000000000000003
    0.0000000000000000      4.1177398453685994      0.0000000000000003
    0.0000000000000000      4.1177398453685994      0.0000000000000003
ITEM: ATOMS id type x y z
1      1          0.0000000000000000     0.0000000000000000     0.0000000000000000
2      1          2.0588699226842997     2.0588699226842997     0.0000000000000000
3      1          0.0000000000000003     2.0588699226842997     2.0588699226842997
4      1          2.0588699226842997     0.0000000000000001     2.0588699226842997
ITEM: TIMESTEP energy, energy_weight, force_weight, nsims
10       -24052.6741757332747511    1    1   99
ITEM: NUMBER OF ATOMS
4         
ITEM: BOX BOUNDS xy xz yz pp pp pp
    0.0000000000000000      4.1406532202503001      0.0000000000000003
    0.0000000000000000      4.1406532202502992      0.0000000000000003
    0.0000000000000000      4.1406532202502992      0.0000000000000003
ITEM: ATOMS id type x y z
1      1          0.0000000000000000     0.0000000000000000     0.0000000000000000
2      1          2.0703266101251496     2.0703266101251496     0.0000000000000000
3      1          0.0000000000000003     2.0703266101251496     2.0703266101251496
4      1          2.0703266101251496     0.0000000000000001     2.0703266101251496
ITEM: TIMESTEP energy, energy_weight, force_weight, nsims
11       -24053.1315598457222222    1    1   99
ITEM: NUMBER OF ATOMS
4         
ITEM: BOX BOUNDS xy xz yz pp pp pp
    0.0000000000000000      4.1634607596822004      0.0000000000000003
    0.0000000000000000      4.1634607596821995      0.0000000000000003
    0.0000000000000000      4.1634607596821995      0.0000000000000003
ITEM: ATOMS id type x y z
1      1          0.0000000000000000     0.0000000000000000     0.0000000000000000
2      1          2.0817303798410998     2.0817303798410998     0.0000000000000000
3      1          0.0000000000000003     2.0817303798410998     2.0817303798410998
4      1          2.0817303798410998     0.0000000000000001     2.0817303798410998
ITEM: TIMESTEP energy, energy_weight, force_weight, nsims
12       -24038.8461634181730915    1    1   99
ITEM: NUMBER OF ATOMS
4         
ITEM: BOX BOUNDS xy xz yz pp pp pp
    0.0000000000000000      3.7568409615506004      0.0000000000000002
    0.0000000000000000      3.7568409615506004      0.0000000000000002
    0.0000000000000000      3.7568409615506000      0.0000000000000002
ITEM: ATOMS id type x y z
1      1          0.0000000000000000     0.0000000000000000     0.0000000000000000
2      1          1.8784204807753002     1.8784204807753000     0.0000000000000000
3      1          0.0000000000000002     1.8784204807753002     1.8784204807753000
4      1          1.8784204807753002     0.0000000000000001     1.8784204807753000
ITEM: TIMESTEP energy, energy_weight, force_weight, nsims
13       -24053.5574869039592159    1    1   99
ITEM: NUMBER OF ATOMS
4         
ITEM: BOX BOUNDS xy xz yz pp pp pp
    0.0000000000000000      4.1861624636643011      0.0000000000000003
    0.0000000000000000      4.1861624636643002      0.0000000000000003
    0.0000000000000000      4.1861624636643002      0.0000000000000003
ITEM: ATOMS id type x y z
1      1          0.0000000000000000     0.0000000000000000     0.0000000000000000
2      1          2.0930812318321501     2.0930812318321501     0.0000000000000000
3      1          0.0000000000000003     2.0930812318321501     2.0930812318321501
4      1          2.0930812318321501     0.0000000000000001     2.0930812318321501
ITEM: TIMESTEP energy, energy_weight, force_weight, nsims
14       -24053.9538852435725858    1    1   99
ITEM: NUMBER OF ATOMS
4         
ITEM: BOX BOUNDS xy xz yz pp pp pp
    0.0000000000000000      4.2087054144717007      0.0000000000000003
    0.0000000000000000      4.2087054144716998      0.0000000000000003
    0.0000000000000000      4.2087054144716998      0.0000000000000003
ITEM: ATOMS id type x y z
1      1          0.0000000000000000     0.0000000000000000     0.0000000000000000
2      1          2.1043527072358499     2.1043527072358499     0.0000000000000000
3      1          0.0000000000000003     2.1043527072358499     2.1043527072358499
4      1          2.1043527072358499     0.0000000000000001     2.1043527072358499
ITEM: TIMESTEP energy, energy_weight, force_weight, nsims
15       -24054.3226240153599065    1    1   99
ITEM: NUMBER OF ATOMS
4         
ITEM: BOX BOUNDS xy xz yz pp pp pp
    0.0000000000000000      4.2311954475542004      0.0000000000000003
    0.0000000000000000      4.2311954475541995      0.0000000000000003
    0.0000000000000000      4.2311954475541995      0.0000000000000003
ITEM: ATOMS id type x y z
1      1          0.0000000000000000     0.0000000000000000     0.0000000000000000
2      1          2.1155977237770998     2.1155977237770998     0.0000000000000000
3      1          0.0000000000000003     2.1155977237770998     2.1155977237770998
4      1          2.1155977237770998     0.0000000000000001     2.1155977237770998
ITEM: TIMESTEP energy, energy_weight, force_weight, nsims
16       -24054.6653073311208573    1    1   99
ITEM: NUMBER OF ATOMS
4         
ITEM: BOX BOUNDS xy xz yz pp pp pp
    0.0000000000000000      4.2535267274620008      0.0000000000000003
    0.0000000000000000      4.2535267274619999      0.0000000000000003
    0.0000000000000000      4.2535267274619999      0.0000000000000003
ITEM: ATOMS id type x y z
1      1          0.0000000000000000     0.0000000000000000     0.0000000000000000
2      1          2.1267633637309999     2.1267633637309999     0.0000000000000000
3      1          0.0000000000000003     2.1267633637309999     2.1267633637309999
4      1          2.1267633637309999     0.0000000000000001     2.1267633637309999
ITEM: TIMESTEP energy, energy_weight, force_weight, nsims
17       -24054.9834859683214745    1    1   99
ITEM: NUMBER OF ATOMS
4         
ITEM: BOX BOUNDS xy xz yz pp pp pp
    0.0000000000000000      4.2756992541951009      0.0000000000000003
    0.0000000000000000      4.2756992541951000      0.0000000000000003
    0.0000000000000000      4.2756992541951000      0.0000000000000003
ITEM: ATOMS id type x y z
1      1          0.0000000000000000     0.0000000000000000     0.0000000000000000
2      1          2.1378496270975500     2.1378496270975500     0.0000000000000000
3      1          0.0000000000000003     2.1378496270975500     2.1378496270975500
4      1          2.1378496270975500     0.0000000000000001     2.1378496270975500
ITEM: TIMESTEP energy, energy_weight, force_weight, nsims
18       -24055.2786316553283541    1    1   99
ITEM: NUMBER OF ATOMS
4         
ITEM: BOX BOUNDS xy xz yz pp pp pp
    0.0000000000000000      4.2978188632033012      0.0000000000000003
    0.0000000000000000      4.2978188632033003      0.0000000000000003
    0.0000000000000000      4.2978188632033003      0.0000000000000003
ITEM: ATOMS id type x y z
1      1          0.0000000000000000     0.0000000000000000     0.0000000000000000
2      1          2.1489094316016502     2.1489094316016502     0.0000000000000000
3      1          0.0000000000000003     2.1489094316016502     2.1489094316016502
4      1          2.1489094316016502     0.0000000000000001     2.1489094316016502
ITEM: TIMESTEP energy, energy_weight, force_weight, nsims
19       -24055.5521182955235417    1    1   99
ITEM: NUMBER OF ATOMS
4         
ITEM: BOX BOUNDS xy xz yz pp pp pp
    0.0000000000000000      4.3197797190368004      0.0000000000000003
    0.0000000000000000      4.3197797190367995      0.0000000000000003
    0.0000000000000000      4.3197797190367995      0.0000000000000003
ITEM: ATOMS id type x y z
1      1          0.0000000000000000     0.0000000000000000     0.0000000000000000
2      1          2.1598898595183997     2.1598898595183997     0.0000000000000000
3      1          0.0000000000000003     2.1598898595183997     2.1598898595183997
4      1          2.1598898595183997     0.0000000000000001     2.1598898595183997
ITEM: TIMESTEP energy, energy_weight, force_weight, nsims
20       -24055.8051992458167661    1    1   99
ITEM: NUMBER OF ATOMS
4         
ITEM: BOX BOUNDS xy xz yz pp pp pp
    0.0000000000000000      4.3416876571453997      0.0000000000000003
    0.0000000000000000      4.3416876571453988      0.0000000000000003
    0.0000000000000000      4.3416876571453988      0.0000000000000003
ITEM: ATOMS id type x y z
1      1          0.0000000000000000     0.0000000000000000     0.0000000000000000
2      1          2.1708438285726994     2.1708438285726994     0.0000000000000000
3      1          0.0000000000000003     2.1708438285726994     2.1708438285726994
4      1          2.1708438285726994     0.0000000000000001     2.1708438285726994
ITEM: TIMESTEP energy, energy_weight, force_weight, nsims
21       -24056.0390097656527360    1    1   99
ITEM: NUMBER OF ATOMS
4         
ITEM: BOX BOUNDS xy xz yz pp pp pp
    0.0000000000000000      4.3634368420793006      0.0000000000000003
    0.0000000000000000      4.3634368420792997      0.0000000000000003
    0.0000000000000000      4.3634368420792997      0.0000000000000003
ITEM: ATOMS id type x y z
1      1          0.0000000000000000     0.0000000000000000     0.0000000000000000
2      1          2.1817184210396499     2.1817184210396499     0.0000000000000000
3      1          0.0000000000000003     2.1817184210396499     2.1817184210396499
4      1          2.1817184210396499     0.0000000000000001     2.1817184210396499
ITEM: TIMESTEP energy, energy_weight, force_weight, nsims
22       -24056.2546516444635927    1    1   99
ITEM: NUMBER OF ATOMS
4         
ITEM: BOX BOUNDS xy xz yz pp pp pp
    0.0000000000000000      4.3850801915634001      0.0000000000000003
    0.0000000000000000      4.3850801915633992      0.0000000000000003
    0.0000000000000000      4.3850801915633992      0.0000000000000003
ITEM: ATOMS id type x y z
1      1          0.0000000000000000     0.0000000000000000     0.0000000000000000
2      1          2.1925400957816996     2.1925400957816996     0.0000000000000000
3      1          0.0000000000000003     2.1925400957816996     2.1925400957816996
4      1          2.1925400957816996     0.0000000000000001     2.1925400957816996
ITEM: TIMESTEP energy, energy_weight, force_weight, nsims
23       -24040.2186847420598497    1    1   99
ITEM: NUMBER OF ATOMS
4         
ITEM: BOX BOUNDS xy xz yz pp pp pp
    0.0000000000000000      3.7819768808781000      0.0000000000000002
    0.0000000000000000      3.7819768808781000      0.0000000000000002
    0.0000000000000000      3.7819768808780996      0.0000000000000002
ITEM: ATOMS id type x y z
1      1          0.0000000000000000     0.0000000000000000     0.0000000000000000
2      1          1.8909884404390500     1.8909884404390498     0.0000000000000000
3      1          0.0000000000000002     1.8909884404390500     1.8909884404390498
4      1          1.8909884404390500     0.0000000000000001     1.8909884404390498
ITEM: TIMESTEP energy, energy_weight, force_weight, nsims
24       -24056.4531755142561451    1    1   99
ITEM: NUMBER OF ATOMS
4         
ITEM: BOX BOUNDS xy xz yz pp pp pp
    0.0000000000000000      4.4066177055977001      0.0000000000000003
    0.0000000000000000      4.4066177055976992      0.0000000000000003
    0.0000000000000000      4.4066177055976992      0.0000000000000003
ITEM: ATOMS id type x y z
1      1          0.0000000000000000     0.0000000000000000     0.0000000000000000
2      1          2.2033088527988496     2.2033088527988496     0.0000000000000000
3      1          0.0000000000000003     2.2033088527988496     2.2033088527988496
4      1          2.2033088527988496     0.0000000000000001     2.2033088527988496
ITEM: TIMESTEP energy, energy_weight, force_weight, nsims
25       -24056.6355837068003893    1    1   99
ITEM: NUMBER OF ATOMS
4         
ITEM: BOX BOUNDS xy xz yz pp pp pp
    0.0000000000000000      4.4280493841822013      0.0000000000000003
    0.0000000000000000      4.4280493841822004      0.0000000000000003
    0.0000000000000000      4.4280493841822004      0.0000000000000003
ITEM: ATOMS id type x y z
1      1          0.0000000000000000     0.0000000000000000     0.0000000000000000
2      1          2.2140246920911002     2.2140246920911002     0.0000000000000000
3      1          0.0000000000000003     2.2140246920911002     2.2140246920911002
4      1          2.2140246920911002     0.0000000000000001     2.2140246920911002
ITEM: TIMESTEP energy, energy_weight, force_weight, nsims
26       -24056.8027290272548271    1    1   99
ITEM: NUMBER OF ATOMS
4         
ITEM: BOX BOUNDS xy xz yz pp pp pp
    0.0000000000000000      4.4494281450418010      0.0000000000000003
    0.0000000000000000      4.4494281450418001      0.0000000000000003
    0.0000000000000000      4.4494281450418001      0.0000000000000003
ITEM: ATOMS id type x y z
1      1          0.0000000000000000     0.0000000000000000     0.0000000000000000
2      1          2.2247140725209000     2.2247140725209000     0.0000000000000000
3      1          0.0000000000000003     2.2247140725209000     2.2247140725209000
4      1          2.2247140725209000     0.0000000000000001     2.2247140725209000
ITEM: TIMESTEP energy, energy_weight, force_weight, nsims
27       -24056.9554532601614483    1    1   99
ITEM: NUMBER OF ATOMS
4         
ITEM: BOX BOUNDS xy xz yz pp pp pp
    0.0000000000000000      4.4706481527267004      0.0000000000000003
    0.0000000000000000      4.4706481527266995      0.0000000000000003
    0.0000000000000000      4.4706481527266995      0.0000000000000003
ITEM: ATOMS id type x y z
1      1          0.0000000000000000     0.0000000000000000     0.0000000000000000
2      1          2.2353240763633497     2.2353240763633497     0.0000000000000000
3      1          0.0000000000000003     2.2353240763633497     2.2353240763633497
4      1          2.2353240763633497     0.0000000000000001     2.2353240763633497
ITEM: TIMESTEP energy, energy_weight, force_weight, nsims
28       -24057.0945742440235335    1    1   99
ITEM: NUMBER OF ATOMS
4         
ITEM: BOX BOUNDS xy xz yz pp pp pp
    0.0000000000000000      4.4918152426867008      0.0000000000000003
    0.0000000000000000      4.4918152426867000      0.0000000000000003
    0.0000000000000000      4.4918152426867000      0.0000000000000003
ITEM: ATOMS id type x y z
1      1          0.0000000000000000     0.0000000000000000     0.0000000000000000
2      1          2.2459076213433500     2.2459076213433500     0.0000000000000000
3      1          0.0000000000000003     2.2459076213433500     2.2459076213433500
4      1          2.2459076213433500     0.0000000000000001     2.2459076213433500
ITEM: TIMESTEP energy, energy_weight, force_weight, nsims
29       -24057.2208662791235838    1    1   99
ITEM: NUMBER OF ATOMS
4         
ITEM: BOX BOUNDS xy xz yz pp pp pp
    0.0000000000000000      4.5128235794720011      0.0000000000000003
    0.0000000000000000      4.5128235794720002      0.0000000000000003
    0.0000000000000000      4.5128235794720002      0.0000000000000003
ITEM: ATOMS id type x y z
1      1          0.0000000000000000     0.0000000000000000     0.0000000000000000
2      1          2.2564117897360001     2.2564117897360001     0.0000000000000000
3      1          0.0000000000000003     2.2564117897360001     2.2564117897360001
4      1          2.2564117897360001     0.0000000000000001     2.2564117897360001
ITEM: TIMESTEP energy, energy_weight, force_weight, nsims
30       -24057.3350467939199007    1    1   99
ITEM: NUMBER OF ATOMS
4         
ITEM: BOX BOUNDS xy xz yz pp pp pp
    0.0000000000000000      4.5337789985324006      0.0000000000000003
    0.0000000000000000      4.5337789985323997      0.0000000000000003
    0.0000000000000000      4.5337789985323997      0.0000000000000003
ITEM: ATOMS id type x y z
1      1          0.0000000000000000     0.0000000000000000     0.0000000000000000
2      1          2.2668894992661999     2.2668894992661999     0.0000000000000000
3      1          0.0000000000000003     2.2668894992661999     2.2668894992661999
4      1          2.2668894992661999     0.0000000000000001     2.2668894992661999
ITEM: TIMESTEP energy, energy_weight, force_weight, nsims
31       -24057.4377424668637104    1    1   99
ITEM: NUMBER OF ATOMS
4         
ITEM: BOX BOUNDS xy xz yz pp pp pp
    0.0000000000000000      4.5546285821430006      0.0000000000000003
    0.0000000000000000      4.5546285821429997      0.0000000000000003
    0.0000000000000000      4.5546285821429997      0.0000000000000003
ITEM: ATOMS id type x y z
1      1          0.0000000000000000     0.0000000000000000     0.0000000000000000
2      1          2.2773142910714999     2.2773142910714999     0.0000000000000000
3      1          0.0000000000000003     2.2773142910714999     2.2773142910714999
4      1          2.2773142910714999     0.0000000000000001     2.2773142910714999
ITEM: TIMESTEP energy, energy_weight, force_weight, nsims
32       -24057.5296671889336722    1    1   99
ITEM: NUMBER OF ATOMS
4         
ITEM: BOX BOUNDS xy xz yz pp pp pp
    0.0000000000000000      4.5753723303038010      0.0000000000000003
    0.0000000000000000      4.5753723303038001      0.0000000000000003
    0.0000000000000000      4.5753723303038001      0.0000000000000003
ITEM: ATOMS id type x y z
1      1          0.0000000000000000     0.0000000000000000     0.0000000000000000
2      1          2.2876861651519000     2.2876861651519000     0.0000000000000000
3      1          0.0000000000000003     2.2876861651519000     2.2876861651519000
4      1          2.2876861651519000     0.0000000000000001     2.2876861651519000
ITEM: TIMESTEP energy, energy_weight, force_weight, nsims
33       -24057.6113855965995754    1    1   99
ITEM: NUMBER OF ATOMS
4         
ITEM: BOX BOUNDS xy xz yz pp pp pp
    0.0000000000000000      4.5960102430148009      0.0000000000000003
    0.0000000000000000      4.5960102430148000      0.0000000000000003
    0.0000000000000000      4.5960102430148000      0.0000000000000003
ITEM: ATOMS id type x y z
1      1          0.0000000000000000     0.0000000000000000     0.0000000000000000
2      1          2.2980051215074000     2.2980051215074000     0.0000000000000000
3      1          0.0000000000000003     2.2980051215074000     2.2980051215074000
4      1          2.2980051215074000     0.0000000000000001     2.2980051215074000
ITEM: TIMESTEP energy, energy_weight, force_weight, nsims
34       -24041.5006702135287924    1    1   99
ITEM: NUMBER OF ATOMS
4         
ITEM: BOX BOUNDS xy xz yz pp pp pp
    0.0000000000000000      3.8069540470308998      0.0000000000000002
    0.0000000000000000      3.8069540470308998      0.0000000000000002
    0.0000000000000000      3.8069540470308993      0.0000000000000002
ITEM: ATOMS id type x y z
1      1          0.0000000000000000     0.0000000000000000     0.0000000000000000
2      1          1.9034770235154499     1.9034770235154497     0.0000000000000000
3      1          0.0000000000000002     1.9034770235154499     1.9034770235154497
4      1          1.9034770235154499     0.0000000000000001     1.9034770235154497
ITEM: TIMESTEP energy, energy_weight, force_weight, nsims
35       -24057.6835204226626956    1    1   99
ITEM: NUMBER OF ATOMS
4         
ITEM: BOX BOUNDS xy xz yz pp pp pp
    0.0000000000000000      4.6165952380009001      0.0000000000000003
    0.0000000000000000      4.6165952380008992      0.0000000000000003
    0.0000000000000000      4.6165952380008992      0.0000000000000003
ITEM: ATOMS id type x y z
1      1          0.0000000000000000     0.0000000000000000     0.0000000000000000
2      1          2.3082976190004496     2.3082976190004496     0.0000000000000000
3      1          0.0000000000000003     2.3082976190004496     2.3082976190004496
4      1          2.3082976190004496     0.0000000000000001     2.3082976190004496
ITEM: TIMESTEP energy, energy_weight, force_weight, nsims
36       -24057.7465530367189785    1    1   99
ITEM: NUMBER OF ATOMS
4         
ITEM: BOX BOUNDS xy xz yz pp pp pp
    0.0000000000000000      4.6370743975372006      0.0000000000000003
    0.0000000000000000      4.6370743975371997      0.0000000000000003
    0.0000000000000000      4.6370743975371997      0.0000000000000003
ITEM: ATOMS id type x y z
1      1          0.0000000000000000     0.0000000000000000     0.0000000000000000
2      1          2.3185371987685999     2.3185371987685999     0.0000000000000000
3      1          0.0000000000000003     2.3185371987685999     2.3185371987685999
4      1          2.3185371987685999     0.0000000000000001     2.3185371987685999
ITEM: TIMESTEP energy, energy_weight, force_weight, nsims
37       -24057.8010684837863664    1    1   99
ITEM: NUMBER OF ATOMS
4         
ITEM: BOX BOUNDS xy xz yz pp pp pp
    0.0000000000000000      4.6574477216237007      0.0000000000000003
    0.0000000000000000      4.6574477216236998      0.0000000000000003
    0.0000000000000000      4.6574477216236998      0.0000000000000003
ITEM: ATOMS id type x y z
1      1          0.0000000000000000     0.0000000000000000     0.0000000000000000
2      1          2.3287238608118499     2.3287238608118499     0.0000000000000000
3      1          0.0000000000000003     2.3287238608118499     2.3287238608118499
4      1          2.3287238608118499     0.0000000000000001     2.3287238608118499
ITEM: TIMESTEP energy, energy_weight, force_weight, nsims
38       -24057.8476007875142386    1    1   99
ITEM: NUMBER OF ATOMS
4         
ITEM: BOX BOUNDS xy xz yz pp pp pp
    0.0000000000000000      4.6777152102604012      0.0000000000000003
    0.0000000000000000      4.6777152102604003      0.0000000000000003
    0.0000000000000000      4.6777152102604003      0.0000000000000003
ITEM: ATOMS id type x y z
1      1          0.0000000000000000     0.0000000000000000     0.0000000000000000
2      1          2.3388576051302001     2.3388576051302001     0.0000000000000000
3      1          0.0000000000000003     2.3388576051302001     2.3388576051302001
4      1          2.3388576051302001     0.0000000000000001     2.3388576051302001
ITEM: TIMESTEP energy, energy_weight, force_weight, nsims
39       -24057.8865543092470034    1    1   99
ITEM: NUMBER OF ATOMS
4         
ITEM: BOX BOUNDS xy xz yz pp pp pp
    0.0000000000000000      4.6979297811722009      0.0000000000000003
    0.0000000000000000      4.6979297811722001      0.0000000000000003
    0.0000000000000000      4.6979297811722001      0.0000000000000003
ITEM: ATOMS id type x y z
1      1          0.0000000000000000     0.0000000000000000     0.0000000000000000
2      1          2.3489648905861000     2.3489648905861000     0.0000000000000000
3      1          0.0000000000000003     2.3489648905861000     2.3489648905861000
4      1          2.3489648905861000     0.0000000000000001     2.3489648905861000
ITEM: TIMESTEP energy, energy_weight, force_weight, nsims
40       -24057.9184127315529622    1    1   99
ITEM: NUMBER OF ATOMS
4         
ITEM: BOX BOUNDS xy xz yz pp pp pp
    0.0000000000000000      4.7180385166342012      0.0000000000000003
    0.0000000000000000      4.7180385166342003      0.0000000000000003
    0.0000000000000000      4.7180385166342003      0.0000000000000003
ITEM: ATOMS id type x y z
1      1          0.0000000000000000     0.0000000000000000     0.0000000000000000
2      1          2.3590192583171001     2.3590192583171001     0.0000000000000000
3      1          0.0000000000000003     2.3590192583171001     2.3590192583171001
4      1          2.3590192583171001     0.0000000000000001     2.3590192583171001
ITEM: TIMESTEP energy, energy_weight, force_weight, nsims
41       -24057.9436078992875991    1    1   99
ITEM: NUMBER OF ATOMS
4         
ITEM: BOX BOUNDS xy xz yz pp pp pp