ITEM: TIMESTEP energy, energy_weight, force_weight, nsims
1        -300697.4024205083260313    1    1   106
ITEM: NUMBER OF ATOMS
50        
ITEM: BOX BOUNDS xy xz yz pp pp pp
   -0.0693574317081598     20.1503287937714006     -0.0344570622373484
   -0.0349608204571941     19.7473020675671762     -0.0349003694708114
    0.0000000000000000     19.9999670403122813     -0.0349608204571941
ITEM: ATOMS id type x y z
1      1         -0.0014836358076283     0.1029506055896519     8.1879085064323913
2      1          1.9235373118183856     2.0470503966704547     9.9662395757657265
3      1          0.0200386497151595     3.9088592425083166     8.1838125131825343
4      1          2.0395554446035500     5.9745904095735121     9.9531955972620345
5      1         -0.0454327187655926     7.8662607967284623     8.1856425101667227
6      1          1.9760313112421857     9.9232832320421132    10.1189273241382871
7      1          0.0604979464243439    11.7503438578131441     8.2737343649924817
8      1          2.0606997677734897    13.8852943561569848     9.9272676399909727
9      1         -0.1080951531305173    15.7194785260120646     8.1810905176683484
10     1          1.9732117266458942    17.6531977702254963     9.9986115224171765
11     1          4.1338094864820247    -0.0188744267255184     8.2251744450186042
12     1          5.9755675401777992     1.9257372286030503    10.0812193862804804
13     1          4.0737034819832356     3.8734238062463127     8.3119683019834483
14     1          6.0146412214752187     5.9436431562996894    10.0058795104396250
15     1          4.0890950715446763     7.9739786888222062     8.3820301865223659
16     1          5.9619570499220513     9.8500132653878758     9.8916196987383209
17     1          3.8742538606989272    11.8977174715392486     8.3768221951050688
18     1          6.0138990215775916    13.6922764697681441     9.8853877090085600
19     1          4.0202862908650676    15.8780337014762907     8.3131842999794987
20     1          6.0581751258658176    17.6778783409464566    10.0672974092237197
21     1          8.0348803066563299    -0.0557244322475448     8.2576863914393357
22     1         10.1109532234138353     2.0366102856205845     9.9785015555581413
23     1          8.0700187175790941     3.9249656856378041     8.2298184373653651
24     1         10.0961331026336936     5.9169452370255815    10.1129513339866399
25     1          8.1030259288923538     7.9351905695475109     8.4037621507083688
26     1         10.0911275278864974     9.7667651145363763     9.9093796694701179
27     1          8.0040810077258104    11.9457352619248951     8.2083564727344065
28     1          9.9481171441436373    13.7802046232341215    10.0088995054627130
29     1          7.9730756200542032    15.7080511913725580     8.2395884212645587
30     1          9.9855363755864079    17.7144301220053464    10.1093673398930157
31     1         11.9924887558886404    -0.0477089897806344     8.3457942462387287
32     1         14.1192294173242185     2.0278061973466417     9.9359976256040685
33     1         11.9591839766704027     4.0501909712009514     8.2808003533478249
34     1         14.0205986551864807     5.8053887827898309    10.0112775015438054
35     1         12.0656684087913870     7.7920206185064735     8.1721985323222253
36     1         14.1292104867584030     9.8715384199305980     9.9319476322784066
37     1         12.1188500833461923    11.7333827997106148     8.1935844970784313
38     1         14.0614125179677352    13.7419285105894140    10.0178894906473328
39     1         11.9869069408025855    15.9000093206351583     8.2562303938388020
40     1         14.0304293424589535    17.7021340150035122    10.0175554911977578
41     1         16.0025416497277604    -0.0425321324066426     8.2412404185420876
42     1         18.2262187202661714     2.0152599503634212    10.0132654982676108
43     1         16.1450151887010662     3.9058032567391523     8.3007863204112091
44     1         18.0106051634621984     5.8226837101365554     9.9919355334191184
45     1         16.0255296963785590     7.9823658500706474     8.3399562558596614
46     1         18.1430455101700048     9.8649702444708147    10.0224494831325242
47     1         16.1706565141704637    11.9514567713213982     8.3514162369737601
48     1         18.0753431328223257    13.8991687317716455     9.9950935282147846
49     1         16.1964804107226463    15.7102407954809049     8.3911781714466045
50     1         18.1102497857701650    17.7624703580376924    10.0613634190028591
ITEM: TIMESTEP energy, energy_weight, force_weight, nsims
2        -300697.4549404077115469    1    1   106
ITEM: NUMBER OF ATOMS
50        
ITEM: BOX BOUNDS xy xz yz pp pp pp
    0.0000000000000000     20.2058227992694484      0.0275656497898801
    0.0000000000000000     19.7751901226177580      0.0279283557081674
    0.0000000000000000     19.9999871906410647      0.0278880550505806
ITEM: ATOMS id type x y z
1      1         -0.0471867253013523     0.0777738637453509     8.2174727369687375
2      1          1.9216728169473933     1.9106986198570881    10.0032255932505389
3      1          0.1135353957906991     4.0244538270150212     8.1834627587510536
4      1          2.0047072105096424     5.8354997384850451    10.0762655464707613
5      1          0.0570594612119843     7.8041633059545417     8.3341686622286897
6      1          2.0116010739302652     9.7893364906894611    10.0042815925742055
7      1         -0.0007076074130897    11.8165153786293935     8.1815447599794702
8      1          2.1103934109434377    13.9228014630445873    10.1042555285440621
9      1          0.1331421047424029    15.7620819524017968     8.3871266283107886
10     1          1.9608118606441236    17.6852911896624576    10.0792795445403911
11     1          4.1233067228712255     0.0769135177810242     8.3383046595797143
12     1          6.0181396478263096     2.0753439445855300    10.0260415786376242
13     1          3.9797265679880853     3.9831540300456938     8.2724747017417197
14     1          6.0180767433157447     5.8510833690422777    10.0161115849974713
15     1          4.1429600951080348     7.8445901488020944     8.1870047564825157
16     1          6.0671310180401603     9.8656233773580961    10.0248855793780045
17     1          3.9763516055104695    11.7678366396161955     8.3942126237724324
18     1          6.1987109731088896    13.7590681267178692     9.9395796340137625
19     1          3.9662498021089037    15.8550631964262312     8.1952947511730354
20     1          5.9634828373884110    17.7522454119024715    10.0856575404554878
21     1          8.1284994984978933    -0.0083406802875393     8.2723387018288239
22     1         10.0285833622130962     2.0955588718856926    10.0002735951412003
23     1          8.0390528909875556     3.8635937896513393     8.2680827045546543
24     1          9.9994062350710937     5.8831294618795615     9.9185176475032986
25     1          8.0502618573199367     7.9039156633152521     8.2936986881484280
26     1          9.9942376964580912     9.8468660811630091    10.0126175872352654
27     1          7.9854844703460488    11.7726441211538795     8.2660487058573668
28     1         10.0680975261232799    13.8254996160298038    10.0143435861298187
29     1          8.1623859084533237    15.8559660725349278     8.3471306539269445
30     1         10.0053716098159384    17.7784491471940349     9.9631956188884718
31     1         12.1294535961184415     0.0755913504027029     8.3021306827480021
32     1         14.0662900107891016     1.8953258501486063    10.0489055639939657
33     1         12.0977232122107861     3.8755472001020514     8.1890407551785227
34     1         14.0298365110808980     6.0431217493347971     9.9012696585500901
35     1         12.0416674712293883     7.9696461731952501     8.3090186783364590
36     1         14.2517484596298551     9.7706558472417928    10.1107135244079203
37     1         12.1860879202489141    11.7440991594261703     8.2942026878256314
38     1         14.1674378047613061    13.7605444753605930    10.0126835871929938
39     1         12.1840933643593416    15.7730055235521451     8.2351387256542310
40     1         14.0385417519411231    17.8930680300590339     9.9345976372045737
41     1         16.2040279333148227    -0.0372078475902202     8.3215026703408572
42     1         18.1293707801018478     1.9766420169190209    10.0735015482410137
43     1         16.0332385081951081     3.9970529912941402     8.4047606170167768
44     1         18.1054160771267192     5.9416183644488312    10.0016195942791306
45     1         16.1630238393677743     7.8798223435523784     8.3350286616778870
46     1         18.1589311230050470     9.9306174949896473     9.9893536021351110
47     1         16.2191821410332402    11.8513608058872801     8.1867347566554418
48     1         18.1447127930557421    13.7619173636695358     9.9875156033122909
49     1         16.0762952009530729    15.7922281856080939     8.3304806645907359
50     1         18.1558029434217261    17.7643315856960911     9.9658736171732993
ITEM: TIMESTEP energy, energy_weight, force_weight, nsims
3        -300694.0903739994391799    1    1   106
ITEM: NUMBER OF ATOMS
50        
ITEM: BOX BOUNDS xy xz yz pp pp pp
    0.0000000000000000     20.2068504660379276      0.0285933165583611
    0.0000000000000000     20.5006019591935313      0.0279283557081674
    0.0000000000000000     19.9999871906410647      0.0278880550505800
ITEM: ATOMS id type x y z
1      1          0.0627051124187547    -0.0709034544047091     8.2290747295380289
2      1          2.0929588160277657     2.0232313085515532    10.1049275281136701
3      1          0.0784624317998896     4.1826289663532998     8.1737067649994568
4      1          1.9694018109669371     6.2369362700660558    10.0526095616216722
5      1          0.0403385913532546     8.2745256263726432     8.2316847278664085
6      1          1.9363892769664919    10.2548114724829151    10.1147675218114639
7      1          0.1011358984412084    12.2225106931257645     8.3508266515597747
8      1          2.0309857890712655    14.2894325191787779    10.1146615218793539
9      1         -0.0239327795544315    16.2866179018524839     8.2313027281110660
10     1          2.0312493822524265    18.4707263145037892     9.9971595971356173
11     1          4.0124409059736239     0.1213892941678476     8.2310707282596542
12     1          5.9906081848948487     2.0090275103282185    10.0595355571857894
13     1          4.1483955393623599     4.0572411760919005     8.2804506966333484
14     1          6.0421738437538304     6.1671478336396772    10.0268975780893843
15     1          3.9920854661226408     8.2772838578422583     8.2790666975197542
16     1          6.1358938250534685    10.2145474163314187     9.8810576714952294
17     1          4.1323965586415916    12.2338580516926321     8.2094007421385946
18     1          6.1698662158372040    14.2241738346155344    10.0780555453243252
19     1          3.9576338978099708    16.4700438575640362     8.3140066751418047
20     1          6.1974559700609406    18.4914407301791996     9.9209016459764232
21     1          8.1748345788436119     0.0064152609458007     8.2022287467320307
22     1          9.9788375149072781     2.0583532659651449     9.8986396602345206
23     1          8.0901625463886155     4.0537864792105855     8.1755267638338065
24     1         10.0435212659651185     6.2393753772865113     9.9342636374184892
25     1          8.0198094353519274     8.1875775033629044     8.3282226660369130
26     1         10.0172478081158758    10.1898398488608724    10.1093115253058574
27     1          8.0187341084232866    12.3807849286698382     8.2111207410369893
28     1         10.0006648988635281    14.3382552917185571     9.9894656020633796
29     1          8.0962472929104017    16.3955575699886111     8.1991907486777720
30     1         10.0021992684556729    18.5553772224018978    10.0898935377424639
31     1         11.9877049298354876    -0.0799498129269656     8.3660006418413140
32     1         14.1013342464420433     2.1463078502889505     9.9791836086486700
33     1         12.0619531279568477     4.0980710021389335     8.1843327581938450
34     1         14.1854160651393890     6.1433958323811932    10.0800695440344210
35     1         12.0955770238819760     8.2619011022232467     8.3454526550016492
36     1         14.0248001278814254    10.2674820267013960     9.9018716581645272
37     1         12.1705150273041820    12.4151037876868138     8.1703327671603976
38     1         14.0330500832560610    14.3046182473552896    10.0405835693239389
39     1         12.1253928657203058    16.2888709757183463     8.2805246965859531
40     1         14.0404663154802627    18.4494345619469122    10.0631355548801054
41     1         16.2273045476537021     0.0048391396003667     8.1804047607096031
42     1         18.1212642819564067     1.9793414251699954    10.0032775932172342
43     1         16.0303412802833982     4.0658170405248457     8.2054607446620391
44     1         18.1713702969846480     6.0828396442323669    10.0551475599961631
45     1         16.0880891077484058     8.3234060692279890     8.2726447016328404
46     1         18.1866129419088338    10.2374291750877990    10.1199495184925610
47     1         16.0978180713331085    12.3462714216679821     8.3707206388183071
48     1         18.2479306216967068    14.3977459597088213    10.1091475254108936
49     1         16.1253142024846206    16.3120769349282142     8.2879646918208714
50     1         18.2631405547242238    18.5066018395202327    10.1095955251239644
ITEM: TIMESTEP energy, energy_weight, force_weight, nsims
4        -300696.4660812655347399    1    1   106
ITEM: NUMBER OF ATOMS
50        
ITEM: BOX BOUNDS xy xz yz pp pp pp
   -0.0693574317081598     20.1503287937714006     -0.0344570622373484
   -0.0349608204571941     19.7473020675671762     -0.0349003694708114
    0.0000000000000000     19.9999670403122813     -0.0349608204571941
ITEM: ATOMS id type x y z
1      1          0.1088927882269242    -0.1835335220193950     8.1586185547018530
2      1          1.9584956302253729     1.8031159295620172     9.7696718997067205
3      1         -0.1401764097645358     4.1397721447590277     8.3624162188459312
4      1          1.9371147920352179     5.8304278133276171    10.1030953502291752
5      1          0.1542930184038099     7.9541737369903949     8.2432984151505355
6      1          1.9068859561911484     9.6946953529592630     9.7693039003131794
7      1         -0.2041838788464591    11.8064031532520914     8.4213481217269166
8      1          2.0616494058515147    13.6312414576198417    10.2231911523128414
9      1         -0.1174279622667107    15.9503174804813863     8.2856403453715810
10     1          1.9127878430814680    17.7067364803940528    10.1060313453906936
11     1          4.1374701316123064     0.0257228934542805     8.2409824189672687
12     1          5.8253553636208606     2.0120277985110970     9.7734978934015313
13     1          4.1242722466302171     3.7907525756037481     8.1838285131561666
14     1          5.9183156643587482     5.9342874325118471    10.0146034960626089
15     1          4.2110808514595011     7.8965948804359360     8.4882520114701681
16     1          5.8486197640434705     9.8701747830224758     9.7687579012129788
17     1          3.9208498086177803    11.6570960619670103     8.0980966544411643
18     1          6.1003265064209353    13.6887858149978765    10.0544574303838399
19     1          3.9311489321352968    15.5545312269752714     8.0749346926117784
20     1          6.1614644079676335    17.6544786578095163    10.1605632555228063
21     1          8.1938657878782752    -0.0623888148859296     8.2439404140925294
22     1         10.1802532331007978     2.0057575610876066    10.1228373176946658
23     1          7.8867511263583383     3.8862361622034238     8.1084506373779330
24     1         10.2337820579069465     6.0624462079562083     9.8627917462464136
25     1          8.1210169850536431     7.9714620642158112     8.3474782434635220
26     1          9.9694336743729774     9.7051242652684486     9.8786757200698307
27     1          7.9301959922049612    11.8384160588323475     8.1758905262378683
28     1         10.1292247922740515    13.9866534657809343    10.1610212547680305
29     1          8.0657247820557654    15.6184327803433831     8.5215679565659208
30     1          9.9985522705808894    17.6730356021447399     9.9208396505842167
31     1         12.2981103841243478    -0.0087696328579874     8.2149504618675966
32     1         13.9759158521574829     2.0725855386543670     9.8454177748784950
33     1         11.9219469397088371     4.0122350750479301     8.2986503239313034
34     1         14.0391329235527156     5.8184156770347286    10.2080711772303658
35     1         12.2314944531060910     7.8193984966776711     8.1754625269432051
36     1         14.2799019989578628     9.8144225555645352    10.0204874863658677
37     1         11.9449239003902612    11.6604976687609341     8.3335582664034646
38     1         14.0436931237233171    13.9360969555362573     9.9596335866523109
39     1         12.1631884005050974    15.5579619767061192     8.1525145647611499
40     1         13.9385664551127668    17.7874941848259702    10.0681154078756698
41     1         16.0814246968370966    -0.0532063299913433     8.2654103787103050
42     1         18.0669731473615158     1.9048124227986296    10.1843432163337386
43     1         16.1983662577928271     3.8642483621365455     8.1237966120879666
44     1         18.2204039944008507     5.9966065251181702     9.7781818856823737
45     1         15.9306105338863500     7.9166102008097088     8.2321264335618167
46     1         18.0319466720391119    10.0177553710986356    10.1454412804436291
47     1         15.8913976975697917    11.6222866813622883     8.0917826648465372
48     1         17.9280640907371165    13.8562889655460690     9.9366216245757268
49     1         16.1833704061282653    15.6937368232615828     8.3455202466902758
50     1         17.8694939877713068    17.5409511688808877     9.9641415792231971
ITEM: TIMESTEP energy, energy_weight, force_weight, nsims
5        -300697.0639696531579830    1    1   106
ITEM: NUMBER OF ATOMS
50        
ITEM: BOX BOUNDS xy xz yz pp pp pp
   -0.0694984840097142     20.1503287937714006     -0.0345981145389028
   -0.0349608204571907     19.8279033827422637     -0.0349003694708114
    0.0000000000000000     19.9999670403122778     -0.0349608204571907
ITEM: ATOMS id type x y z
1      1         -0.0831174394649373    -0.0368247423596302     8.2748583631401473
2      1          1.9106094662849609     1.9897449050036486     9.8893557024693557
3      1         -0.0338681807690593     4.0217173443312735     8.2951223297453911
4      1          2.0782149529297156     5.9081152003773152    10.0834013826845776
5      1         -0.0320611809299506     7.8391060299596118     8.3338162659782835
6      1          2.0126845326611136     9.9786264282640182    10.0440994474536609
7      1         -0.0184647556560910    11.8906619146222390     8.2082324729387555
8      1          1.9710621608640542    13.8756856461598588    10.1031913500709649
9      1         -0.1385821248119734    15.8294272913207248     8.2207344523356536
10     1          2.0257606312201202    17.9347472865647468     9.9600815859140113
11     1          4.0610199986387636     0.0737794707947420     8.2044164792274632
12     1          6.0626224029510620     1.8974897650823490     9.9425936147339620
13     1          3.9045720019277019     3.9909223665077862     8.3984921593932462
14     1          5.9527076163076265     5.9807657152274185     9.9512076005382255
15     1          4.0430459277820363     7.9777516995709394     8.3479682426560089
16     1          6.0211689260655730     9.8710649915020490     9.9153676596019853
17     1          3.9578150334659563    11.8679176364732761     8.4065561461038989
18     1          5.9674109535137596    13.9561464257905854     9.9891155380664323
19     1          4.0606874991333219    15.9527923455705736     8.1992944876684390
20     1          6.0164210528617748    17.7143863597348670    10.0505714367879051
21     1          8.0275621642035588    -0.0407990092484869     8.3762421960608968
22     1         10.0717737688694609     2.0573882735783835    10.0921213683141531
23     1          8.0344647400722167     4.0111586445422045     8.3758521967036117
24     1         10.0457204574830303     5.9718704106103244    10.1137013327506509
25     1          8.0110018517979231     7.8312007481251511     8.2294024380509256
26     1         10.0879748545629546     9.7894826611966970     9.8872517059367144
27     1          7.9141455882964804    11.9804982862932068     8.2671543758362187
28     1         10.1368647879753091    13.8472293044719308     9.9190556535242198
29     1          8.1143353069951250    15.7881726494126031     8.1825725152260329
30     1         10.1155987916472849    17.9020115240967641    10.1097473392667823
31     1         12.1866223091064736     0.0124329512457450     8.1720765325232776
32     1         13.9832657129324947     1.9324696995268511     9.9235696460852179
33     1         12.1503386744756323     3.9304429396783678     8.3226982843005732
34     1         14.1163333683760062     5.8942586440953679    10.1008833538745133
35     1         12.1573739353810026     8.0088313317576798     8.2984063243334099
36     1         14.0846036602197060     9.8572662278662957    10.0290974721767210
37     1         12.1692319976112540    11.9323626376318899     8.2668383763569810
38     1         13.9810704256475873    13.9069923471828396     9.9974595243156514
39     1         11.9418318608407645    15.9539213573799810     8.2453404117853495
40     1         13.9625775338899274    17.7416684890910226    10.1067613441876620
41     1         16.0768404498867561    -0.0560203424675880     8.4054201479760096
42     1         18.1724785997913507     1.8626774338750565    10.1005353544480130
43     1         16.2077035948912709     3.9596855319903890     8.1716085332945347
44     1         18.2204486329809221     5.8450450718635123     9.9787895550835195
45     1         16.0340909873884563     7.9398504145206408     8.2097264704766655
46     1         18.0248166728596999     9.8880304352470709    10.0873853761190091
47     1         16.1795056976389873    11.8362081484182973     8.2005184856513065
48     1         18.0882773949861537    13.9684310898720607     9.9305356346053593
49     1         15.9785748862790999    15.8492021499422222     8.3236742826921422
50     1         18.0955635506095227    17.7205209007094133     9.9985155225753797
ITEM: TIMESTEP energy, energy_weight, force_weight, nsims
6        -300696.9098139647394419    1    1   106
ITEM: NUMBER OF ATOMS
50        
ITEM: BOX BOUNDS xy xz yz pp pp pp
    0.0000000000000000     20.1642123703103131      0.0069115627762647
    0.0000000000000000     19.8348955468337032      0.0069720137626479
    0.0000000000000000     20.0000073409698658      0.0069720137626470
ITEM: ATOMS id type x y z
1      1         -0.2216360522278884    -0.0773025016242038     8.4312030946592564
2      1          1.8208566773778603     1.9937962048524502     9.8722776236032974
3      1          0.0905251042791407     3.7816754188635673     8.2265190195303024
4      1          1.8475988040694085     5.8574295868753046     9.8719696234902461
5      1          0.2210715083367946     7.7721851038528804     8.1278049832974766
6      1          2.1405723992305732    10.0503048112966074     9.8351596099791916
7      1         -0.0210590298607784    12.0522211451375547     8.3447910629418622
8      1          2.0785258808391958    13.9525218799501562    10.2060837461262857
9      1         -0.0840272305196498    16.0289950725633688     8.1068289755982690
10     1          2.1651399684572201    17.8759783354835555     9.7969535959557366
11     1          4.0081262226844041    -0.2292975272889980     8.1863030047690799
12     1          6.2096524801132453     1.9479529927127393    10.0967717060034818
13     1          4.0111631224470061     4.1982303330626873     8.4824231134594807
14     1          6.0423520248597971     5.9882683606898581     9.9921456676006670
15     1          4.1498254168896338     7.9016942722385464     8.4665531076344216
16     1          5.8319773546020413     9.9070571632556454     9.8157596028584511
17     1          3.8352419696291187    11.8395691930275433     8.2382850238489951
18     1          6.2535462135375246    14.0939140908138203    10.0390936848328582
19     1          4.0344401444491993    15.7769568430309661     8.3072090491474455
20     1          6.2294088917132440    17.9339044098816238     9.9413836489685501
21     1          8.0354139072108630     0.1991980529166370     8.1643349967057581
22     1          9.9895851580828445     1.8581121648429022     9.9929376678913684
23     1          8.2795304466451825     3.9350932059992605     8.2129310145428480
24     1         10.0214091893640216     5.9853873544900287    10.1741317343983528
25     1          7.8820723175279275     7.7963798476479829     8.4995571197484896
26     1         10.1981939927820218    10.0813678506628595     9.9336156461173175
27     1          8.0102580564133810    11.7395392142801480     8.3006010467219902
28     1         10.1020024115968088    13.9936905323068963    10.1547057272680696
29     1          8.0771255259183903    15.8717491128294501     8.3496510647257178
30     1         10.0715618775490157    17.8662529590805335    10.0990417068366813
31     1         11.9351893253540879     0.1254464113782873     8.3585910680071311
32     1         14.0775032223222283     1.9921802192269642     9.8608736194174771
33     1         11.9978882053829423     4.0801905186802889     8.4362890965260640
34     1         14.0040133699645395     6.1669634956692612     9.8725276236950599
35     1         12.0918240596938915     7.7815829845345084     8.5243631288534942
36     1         14.0221669610012096    10.1386253197215179     9.8379956110201405
37     1         12.2879230399353485    12.0566682733098531     8.4634471064943675
38     1         14.1506108899445575    13.8859809654262758    10.1594737290181563
39     1         12.1774010667873860    15.9676906318739924     8.2363110231244416
40     1         14.1653325168867852    18.0277835170542424     9.8669756216572058
41     1         15.9210941393280248    -0.0816279661654926     8.0757029641735176
42     1         18.2980742680160908     2.2031518793909100     9.7771935887028576
43     1         15.9949279325962088     3.8336895734621588     8.4641551067542391
44     1         18.1785283359248915     5.9105785295020006    10.1739817343432950
45     1         16.2162455717848211     7.8018929773157950     8.0814289662752365
46     1         18.0941708331297413     9.8426517177768122    10.2128077485943205
47     1         16.0542496128906933    11.8386002969457955     8.0582509577677879
48     1         18.1812206482718395    13.9819530934731286     9.8609216194350946
49     1         16.0410532293559491    15.8556832270928894     8.2150950153371411
50     1         17.9223910707049399    17.7867676622166258    10.1413897223804508
ITEM: TIMESTEP energy, energy_weight, force_weight, nsims
7        -300696.5121833570883609    1    1   106
ITEM: NUMBER OF ATOMS
50        
ITEM: BOX BOUNDS xy xz yz pp pp pp
    0.0000000000000000     20.1781362475068100      0.0138432758813227
    0.0000000000000000     19.8418675605963486      0.0139641778540861
    0.0000000000000000     20.0000073409698622      0.0139440275252914
ITEM: ATOMS id type x y z
1      1         -0.1548033741375094     0.1741034790534085     8.5295691307643473
2      1          1.9786435743768451     1.9372652541856752    10.0672256951586654
3      1         -0.1631077655246314     4.0775514804496602     8.1030389742071538
4      1          1.9791395310462816     5.7903459578152683    10.0126676751332333
5      1         -0.0189540786781006     8.0454304171924420     8.4274470932806196
6      1          2.1489795349337246     9.9528622272885823    10.0277856806822729
7      1         -0.1862513373055552    11.9116611743641574     8.0659949606102082
8      1          1.9625329933813713    14.1043113706169869    10.0127976751809502
9      1         -0.2045703645526260    15.6676558365713046     8.2665350342181139
10     1          2.0712568743405435    17.6781599321796463    10.1950597420799429
11     1          3.9779161074267289    -0.0383744726582408     8.4301170942606394
12     1          6.1598109227213147     1.9199210315340169     9.9666296582350551
13     1          4.1399276288127149     4.0738538999198415     8.1575429942127649
14     1          5.9798657868659904     6.0504553496871303     9.9767616619539901
15     1          4.1917506808546134     8.0560194814293542     8.1415769883524689
16     1          5.8640367789552901    10.1566845524488230    10.1091157105343257
17     1          4.2370859563478946    11.7635386544188236     8.2309430211541237
18     1          5.8462862338984625    13.8528425035520133     9.7778355889385011
19     1          4.1014321785655889    15.8628606774392917     8.4527051025515316
20     1          6.2006075271751602    17.9883252125112918     9.9889416664246404
21     1          8.0091634115055790    -0.0856421166787173     8.3051890484060067
22     1         10.1105327098031026     2.0342024113412487    10.1901197402667218
23     1          8.0512585221063375     4.0564181915836475     8.1532429926344570
24     1         10.1209626980874550     6.0812932884811088     9.9875196659026972
25     1          8.0459383205082151     8.1006184512077599     8.4146250885743257
26     1         10.2295427297605475    10.0798479207842391    10.0729156972471721