ITEM: TIMESTEP energy, energy_weight, force_weight, nsims
1        -384887.7056998091866262    1    1   250
ITEM: NUMBER OF ATOMS
64        
ITEM: BOX BOUNDS xy xz yz pp pp pp
   -0.8100068753095098     23.1635698850271972     -0.4042506216334916
   -0.4129137967704927     23.1600490224046744     -0.4057562536760181
    0.0000000000000000     23.2424650040555996     -0.4129137967704927
ITEM: ATOMS id type x y z
1      1         -0.2710260822447725    -0.1331708153312077     9.9847142713667427
2      1          2.6573303019522272    -0.0751720850644147    10.7485802079715302
3      1          2.6965737748475069     2.6127583783685546    11.6429804765320934
4      1         -0.3629894689905835     2.6053298075341611    12.3500162619554654
5      1         -0.2037332114703538     5.5784408719225720    10.1030393364558897
6      1          2.7002961194775521     5.7126760089919868    10.7697564178367244
7      1          2.6170667049944725     8.5763170583775921    11.7359921729853252
8      1         -0.4277637799209983     8.3900623755580526    12.3345879136857732
9      1         -0.3390383246374148    11.3273826415836218     9.9283931301689137
10     1          2.5946048400767596    11.4979851350175792    10.9089485680065135
11     1          2.4949424993061298    14.2480914966436973    11.6944695092555797
12     1         -0.4732853159162003    14.2750574438824085    12.4637160765088062
13     1         -0.5264005076344342    17.1218366879247874    10.0445659429986858
14     1          2.4158587448439737    17.1031057899679304    10.8882372074413993
15     1          2.2596200766523977    20.0039262001223719    11.5711589354230622
16     1         -0.6790933665112566    20.0868546757153048    12.4642018440273912
17     1          5.5602168941320329    -0.2625524780764201    10.1046709574991738
18     1          8.5032089007171034    -0.1936085632787624    10.7267136968957146
19     1          8.4450445721689427     2.6118698506326483    11.5988709264473968
20     1          5.6163049560634377     2.7730484982622441    12.5115072330501444
21     1          5.5570670117699024     5.7081233439762835     9.9851837691598231
22     1          8.4889574038296320     5.5986393192155690    10.7434924323821424
23     1          8.3399446216525508     8.4828381903837453    11.7144975413495729
24     1          5.4421605654841692     8.4447409953674502    12.4899800619633883
25     1          5.5096270230830671    11.5184532005935942     9.8900570083912260
26     1          8.3558381132027737    11.3288432061630040    10.7966735165579220
27     1          8.3425831828025174    14.3045472293103320    11.6029081426186025
28     1          5.4042662099323984    14.3309188756419630    12.4087360255417121
29     1          5.3071730159445725    17.2242826750437139     9.9800448601474283
30     1          8.0983368593552782    17.0704692481085800    10.8539173836164107
31     1          8.2437531521473524    20.0983588463637552    11.6057135081445928
32     1          5.1092328400574916    19.9327591830247464    12.4151904580733365
33     1         11.3203340559748149    -0.2600092918946763    10.0625509624188236
34     1         14.2881737879273008    -0.1393683900105812    10.7062835701571490
35     1         14.3002187826199911     2.6779882033838938    11.5963351735154561
36     1         11.2223233440380739     2.6403711510255485    12.3245843567480300
37     1         11.2016926420415128     5.6425306370204531    10.0488657990244352
38     1         14.2398068446315378     5.6132698250142701    10.9235099723315532
39     1         14.0265875164632021     8.4981011382561320    11.6057460475955967
40     1         11.1322480782805329     8.5749077220158121    12.3955784661029167
41     1         11.2883009976523212    11.2959722120490529    10.0646683509806945
42     1         14.1843507901881853    11.4279117692082046    10.8027188817054771
43     1         14.0146291264760983    14.1678883080633611    11.6922498538476916
44     1         11.0675632438032920    14.3197918939592732    12.4472441415604322
45     1         11.1835964687822269    17.1656859107038358    10.1004756925659418
46     1         13.9588981512588131    17.2316103253914292    10.7674623865408243
47     1         13.9424230695904274    20.0287816860176662    11.5170504768936208
48     1         11.0788237742119495    20.1376827388999970    12.5483604855605737
49     1         17.2267859792239300    -0.0884412416305454     9.9245836901547495
50     1         20.0980352100057154    -0.1104365497155109    10.7521548990891542
51     1         20.1188547883116762     2.7678358622290191    11.6819534418508955
52     1         17.0591253616965943     2.5815337798381197    12.4920625868277533
53     1         16.9943614201420772     5.5798963632493059     9.9762656353377679
54     1         19.9668043065234926     5.5373976007309951    10.7780167898991657
55     1         19.8139485590721343     8.3992436501978140    11.6007256751547221
56     1         16.9094849627741546     8.4839048830662076    12.3847614228900280
57     1         17.0557433723264573    11.3912556789079833    10.0429877796249105
58     1         19.8286074452171626    11.4984409978346793    10.7900773049897705
59     1         19.7161122242476061    14.2104061166556015    11.6897396676272542
60     1         16.9284289724373131    14.2617362714492764    12.4123246621383387
61     1         16.8840563195648663    17.2676231723943658    10.0436013807010163
62     1         19.7984084064491803    17.2593158779347391    10.8628053022339603
63     1         19.7241656224610082    20.1441020565066751    11.7240966793962489
64     1         16.8821862141241468    20.1524819536737745    12.4748375960132449
ITEM: TIMESTEP energy, energy_weight, force_weight, nsims
2        -384887.2413721648044884    1    1   250
ITEM: NUMBER OF ATOMS
64        
ITEM: BOX BOUNDS xy xz yz pp pp pp
   -0.6480240311035170     23.1635698850271972     -0.3234097627347466
   -0.3291774916361221     23.1613230187483516     -0.3246142683687705
    0.0000000000000000     23.2450593238827210     -0.3291774916361221
ITEM: ATOMS id type x y z
1      1         -0.1957416570282429    -0.0640103205088626     9.9020675166375725
2      1          2.7556459552146659    -0.2422713984679293    10.7200030415966960
3      1          2.7196764016604447     2.6907305596266924    11.6633712311734232
4      1         -0.2532816506525748     2.7142837482552329    12.4577269679543985
5      1         -0.1940272614080811     5.7512686977940426     9.9638063942018054
6      1          2.5793753014057330     5.5489349782145911    10.6990592431458786
7      1          2.5766327269066922     8.4944625918960845    11.6543660951913495
8      1         -0.2339558290360606     8.5196903777637427    12.3314505076833374
9      1         -0.3371707505139298    11.5336299682258616     9.9438295902188596
10     1          2.6862245480189086    11.5274175572660802    10.7663862329715716
11     1          2.4745998216408647    14.2901680053992308    11.7174113450895856
12     1         -0.3224110859050157    14.2482672787630840    12.4110183457489889
13     1         -0.4839673582905072    17.1772210454141572     9.9973908559129505
14     1          2.5949169467122970    17.2039436350063113    10.7524275748475802
15     1          2.4399641471830478    20.1195246716716483    11.6849286991903920
16     1         -0.4720469892557099    20.1257910125505397    12.4412857374946171
17     1          5.6285837792852771    -0.0541673036932200    10.0807081220475432
18     1          8.5690306725166518    -0.2120308746241808    10.6970276249609704
19     1          8.5857699247994628     2.7817449983987101    11.5655862401156444
20     1          5.6518112837919636     2.7037811143243546    12.4645238233007039
21     1          5.4983259511921423     5.6162508574556300     9.8845686359785532
22     1          8.5291835606893915     5.6834156153268225    10.9088040624371345
23     1          8.4813127632269332     8.5005075570134210    11.5863371045740760
24     1          5.4900167205267660     8.4125084200540279    12.3678034559599599
25     1          5.5610336624904528    11.5053439353912470    10.0674142726202156
26     1          8.4059044143036470    11.5042046029210692    10.8825580659545391
27     1          8.3731000857823474    14.4211574264509643    11.7191709960804040
28     1          5.5160285442417658    14.2726484462994012    12.5088777209966029
29     1          5.3566743058609658    17.2053220771837623    10.0095363994096793
30     1          8.3866062044777951    17.1585223747143445    10.7883807081038299
31     1          8.1647000664277662    20.0642882111600329    11.6539476841235210
32     1          5.2243759316667129    20.1896473830146235    12.4078779382343320
33     1         11.3711668678951714    -0.2487120028394019    10.0978002141683945
34     1         14.2253162121584520    -0.0784061754786278    10.8303194441359771
35     1         14.2848044212828249     2.6641524342430398    11.5749237804460492
36     1         11.3850203754986339     2.8124269546720693    12.4886800889500797
37     1         11.3474619531608329     5.6317830383383267     9.9452335918020225
38     1         14.2904682432230814     5.7274179644425205    10.8278113022349309
39     1         14.0838432318799427     8.5084065071977228    11.5326247459943794
40     1         11.3284795146974382     8.6013168962469475    12.4078965342817913
41     1         11.2357347695154868    11.3359668341313196     9.9043966715818268
42     1         14.0813426228737413    11.4600775604334171    10.9193642928879751
43     1         14.1643906167334581    14.2664637064846112    11.5800958061456125
44     1         11.1368158358213201    14.3182775129645918    12.4224316698770174
45     1         11.1822265965859238    17.1373701035994834     9.8882692494229154
46     1         14.1880332175640618    17.2349304016871905    10.7917349701642653
47     1         14.0095887024840025    20.1981837118416649    11.5623644748933554
48     1         11.1352123532851142    20.0562524361102597    12.3654905725572331
49     1         17.1746496130031510    -0.1357159452792869     9.8899986818366123
50     1         20.0416938220271525    -0.0501503376151422    10.7463210977631949
51     1         20.0937306489910164     2.8335322191229912    11.6293148947580018
52     1         17.1646500278439795     2.7327788023782298    12.4972551913346610
53     1         17.0830354336538406     5.6137858107741021    10.1034534125959627
54     1         20.0184602839247390     5.6481536327912210    10.7916187448676464
55     1         20.0635748282812791     8.5513970313179239    11.5153955080235164
56     1         17.1716257137049553     8.5257180160605834    12.4600933149935713
57     1         17.0915375773439422    11.5138619501571835     9.8999847593221535
58     1         20.0477176318514800    11.5238109835143714    10.8144965322542106
59     1         20.0054481107249842    14.3969627837649874    11.7160863767081249
60     1         16.9649585034798029    14.2471411032191302    12.4956140901463968
61     1         16.9438486422323358    17.1700403953522951     9.9537668530798200
62     1         19.9451221673576917    17.2149753247251205    10.8572697659160884
63     1         19.8888597065936032    20.0574479415276201    11.5823621994296904
64     1         16.9878756804057716    19.9918548035649266    12.4829153142377596
ITEM: TIMESTEP energy, energy_weight, force_weight, nsims
3        -384887.4587493143626489    1    1   250
ITEM: NUMBER OF ATOMS
64        
ITEM: BOX BOUNDS xy xz yz pp pp pp
   -0.4859948597577551     23.1635698850271972     -0.2425457402661188
   -0.2460202757488738     23.1622958886835129     -0.2434491194916363
    0.0000000000000000     23.2470977180326059     -0.2460202757488738
ITEM: ATOMS id type x y z
1      1         -0.0090904678819220    -0.0257411965635390     9.9744950599997146
2      1          2.8626615952358061    -0.1798021310910306    10.8606139825570498
3      1          2.8348615685138139     2.7858381361089739    11.6715029721890620
4      1         -0.0832977223612538     2.8755876328756571    12.4578685984383171
5      1         -0.1710889412804872     5.6501266045557781     9.9611000822945837
6      1          2.8039994126059198     5.5933082906511631    10.9069361494700008
7      1          2.5907764115038083     8.4830375270254308    11.5176792512986097
8      1         -0.1986196765551146     8.6194231086275330    12.3978329685815005
9      1         -0.1971272292281480    11.4777040109744046    10.0301044424510195
10     1          2.6070544232317463    11.5438857066084353    10.7177768400481419
11     1          2.7286748843008475    14.2526243013697691    11.7284327897907517
12     1         -0.2671067301672780    14.3660609058741251    12.4120229970285880
13     1         -0.2693804435563843    17.2920877639654087     9.9472541108937236
14     1          2.6541283561034299    17.2519202476216016    10.8303299883597681
15     1          2.5331046487804709    20.0607571497636101    11.6297674576558769
16     1         -0.2544043654896966    20.0521776476766718    12.4619159181510284
17     1          5.7462983302933779    -0.0849112809878205     9.9565180793343604
18     1          8.5428853311959418    -0.0343229699357956    10.8300579973164677
19     1          8.5949565715135048     2.8000753939122456    11.5152894496531957
20     1          5.6929293690475413     2.7031916374299065    12.4689388663716461
21     1          5.6130043212414211     5.5837308062223254    10.0014733169014907
22     1          8.4336754047124902     5.6596328375888501    10.7798396168259725
23     1          8.4476065851304636     8.4834005949531743    11.6100957635668784
24     1          5.4850390557256068     8.5498700566238508    12.4183113369613150
25     1          5.5330625453421307    11.4327475729089372     9.8881297672674506
26     1          8.5184767856171781    11.3593049333711136    10.7151917627818971
27     1          8.2989711746078978    14.4651304442005895    11.6981023013980323
28     1          5.4745187533833866    14.3268203095745701    12.5336215910622979
29     1          5.5622216653155485    17.2565573465504123     9.9281612695379025
30     1          8.4114638913245408    17.3422939537470384    10.9203729719510250
31     1          8.2566954934125878    20.0748461875430344    11.6300417734089496
32     1          5.4180354588204169    20.1709597025623992    12.4596167801867157
33     1         11.5317714052568725    -0.1820417084314336     9.9310671567526576
34     1         14.3825396703763992    -0.1507768615073826    10.8342936185206931
35     1         14.3405472046718874     2.8831777752109500    11.6207173625142470
36     1         11.3254853028009617     2.7157547618098037    12.4389640585740153
37     1         11.4019829571330042     5.7066073778869315    10.0473793607652890
38     1         14.2799386076670345     5.5603766453840144    10.8219680073105931
39     1         14.3368040778768844     8.5699645945142926    11.7355487264022393
40     1         11.3815404668598603     8.6212033140344584    12.5434713863654306
41     1         11.2462785265913485    11.5139480027057992    10.0242299008576730
42     1         14.3563078485253719    11.5134214413216380    10.8579661381269670
43     1         14.1472857041974578    14.2619959419843223    11.7345444517808204
44     1         11.3981572176953261    14.4156563317254935    12.3467707184438407
45     1         11.2990788981776529    17.3284936284329802    10.1149656479609256
46     1         14.1803450160266866    17.3234098743983580    10.9140125660153711
47     1         14.0593695569998705    20.1110135672842461    11.6106141738459900
48     1         11.3054472752049833    20.2450478764552422    12.3721704974105631
49     1         17.3681954191108403    -0.0074798631131648    10.0488927468267342
50     1         20.1851711707302925    -0.0870598384771235    10.7668956328165741
51     1         20.1955643429184875     2.8255895696248499    11.5090755004331662
52     1         17.2730483763621443     2.6628743060049298    12.3473472464672493
53     1         17.2296908282081027     5.5874348771560989    10.0104071765545317
54     1         20.0378298366470915     5.6502960613759736    10.7824711882876549
55     1         20.0796986596073666     8.5977672879723812    11.5907843994925077
56     1         17.2438943326734844     8.6194144740663550    12.4741578398093438
57     1         17.2299290772103859    11.5871454051050051     9.9673326291927893
58     1         20.0201242043355769    11.4126588293275919    10.9144031172570344
59     1         20.0627038220348233    14.3646894982412174    11.6897821651247504
60     1         17.1805723754206490    14.3492009341567748    12.4067831012029419
61     1         16.9944379842925350    17.2993656268093403    10.0255828819448620
62     1         19.9802322356993081    17.1862873974764625    10.7935763268675586
63     1         19.9736081407267925    20.1970264901881507    11.5933485543708077
64     1         17.0406309220938397    20.0212750719068318    12.3948898860103984
ITEM: TIMESTEP energy, energy_weight, force_weight, nsims
4        -384887.5275633976561949    1    1   250
ITEM: NUMBER OF ATOMS
64        
ITEM: BOX BOUNDS xy xz yz pp pp pp
   -0.3240120155517616     23.1635698850271972     -0.1617048813673753
   -0.1634421491087520     23.1630139593499500     -0.1623071341843862
    0.0000000000000000     23.2485338593654731     -0.1634421491087520
ITEM: ATOMS id type x y z
1      1         -0.0556889470762603    -0.1161819191471636    10.0116463276481671
2      1          2.7726952712405004    -0.0904499462268150    10.7621717716699035
3      1          2.7464800811685199     2.8867698810687141    11.5188115800966546
4      1         -0.0511653525492352     2.9082269832182521    12.3733067923908600
5      1         -0.1902842506463483     5.6083169088313340     9.9334429094520313
6      1          2.7538815601950186     5.7141226814612276    10.7443680444404031
7      1          2.8280885957901969     8.6532572711504852    11.5403025247962532
8      1         -0.1100797779008637     8.6540115353766698    12.4698812020426644
9      1         -0.1022543830165808    11.4295621592427885    10.0556837004845772
10     1          2.6315534176309670    11.5266786799670005    10.8341050602841662
11     1          2.7326479919429421    14.3975307651908633    11.6261221626847124
12     1         -0.0937842322747495    14.3668927972571048    12.3335471497845734
13     1         -0.2036830481631344    17.4122045690923457     9.9730467868814614
14     1          2.7138650588215176    17.3200550501650348    10.7615022138947545
15     1          2.6526808765621337    20.0827970767700386    11.7042790838131303
16     1         -0.2920548974550744    20.1771247689828286    12.3357534356478276
17     1          5.8233697074316453    -0.0685775182116463     9.9243666818333374
18     1          8.6975862462280578    -0.1140887881288904    10.8838894706906117
19     1          8.6166741520553920     2.7044374918382981    11.5478187757929849
20     1          5.7602359638317520     2.7076921299187537    12.4568155260137026
21     1          5.7303473173565491     5.8261943141915857    10.0808409389737950
22     1          8.6053463676368658     5.7618959532712770    10.7081886760484579
23     1          8.5137678049887064     8.4965568557634867    11.7261722281484921
24     1          5.7574498005345793     8.6103040006939704    12.5478149372460308
25     1          5.7472264266138176    11.4338011908935311    10.0365455074115459
26     1          8.5456639738263149    11.5031050388258453    10.7603932588296622
27     1          8.4114974950442924    14.4947917911972262    11.7164659652622092
28     1          5.7014688591714249    14.3464396035592721    12.3411610446235169
29     1          5.5852862984258032    17.3185203967267007     9.9524834586828526
30     1          8.5054528017648252    17.4080988443236890    10.7577103780222920
31     1          8.5317467223694052    20.2141298612696438    11.5598522169185927
32     1          5.5909677726717737    20.1509059392029002    12.5094757800585512
33     1         11.5900291201136074    -0.0840908712513560     9.9024456392573406
34     1         14.4719137451662441    -0.1733534854631091    10.9125270146985791
35     1         14.4453525407078498     2.8975000808800604    11.5400723643110439
36     1         11.3997166336940374     2.8531769732528773    12.3421188842185217
37     1         11.4568577525744750     5.7122019841710285    10.0050879162464383
38     1         14.3139325794481849     5.7510619628957560    10.8008643065720467
39     1         14.2991574957009018     8.5275904521710562    11.6530579140141750
40     1         11.5018853699460450     8.6993993729119570    12.4962520139993440
41     1         11.4952838968841817    11.5601960410782869     9.9418100567880181
42     1         14.3150566902494294    11.5210502919835438    10.7602700416002079
43     1         14.4008847020579491    14.4775368076596713    11.7004430757263318
44     1         11.5023507698997758    14.3497182144706201    12.4681910336310882
45     1         11.4030238114809936    17.2286886585876715     9.9071488176570899
46     1         14.3533362632301653    17.3430703841174711    10.8797047345959257
47     1         14.3472908631125708    20.0961020574369762    11.5655481077141360
48     1         11.4086624614146608    20.1660487266587580    12.4671425247540331
49     1         17.2302335934289843    -0.1254146526117629     9.9684784499780967
50     1         20.2978883695011163    -0.1082477849803586    10.7208986495093725
51     1         20.2623721491886606     2.7974331355391842    11.5977891744703054
52     1         17.1814503699516763     2.7539162852909880    12.3418213029851209
53     1         17.1867383451299638     5.8211440098783589     9.9679390839925599
54     1         20.1522354369957668     5.7282438095731978    10.9013932918333278
55     1         20.1109321895401330     8.7030827589793454    11.5990166970580795
56     1         17.3055738786991959     8.5070805294451706    12.3474660470061757
57     1         17.1930596741463866    11.6187308018831050    10.0031629376428839
58     1         20.0262830988181797    11.4154405766615774    10.8150017400119260
59     1         20.0215324693498182    14.3921227820957274    11.5736525466175131
60     1         17.2860605789008837    14.4872851138429066    12.3895249696111538
61     1         17.1641250024060241    17.2929974289939175    10.0690678814274115
62     1         20.0007474021269722    17.1822160875300689    10.9128036722515045
63     1         20.0351618956705551    20.1517560671046212    11.5579365377285814
64     1         17.2589539060075126    20.2366683728395067    12.4068125793889781
ITEM: TIMESTEP energy, energy_weight, force_weight, nsims
5        -384886.7360038845799863    1    1   250
ITEM: NUMBER OF ATOMS
64        
ITEM: BOX BOUNDS xy xz yz pp pp pp
   -0.1619828442059904     23.1635698850271972     -0.0808408588987420
   -0.0814431117157530     23.1634309036078925     -0.0811419853072483
    0.0000000000000000     23.2493677478813368     -0.0814431117157530
ITEM: ATOMS id type x y z
1      1         -0.0391821345206552     0.0410484122810565     9.9793051939921327
2      1          2.8128850145097641    -0.0618262855916862    10.7817524719367075
3      1          2.9294279910377639     2.8889717776485822    11.5793987554413444
4      1         -0.1347780849095688     2.7866027338723836    12.5033170050582747
5      1         -0.0993252111837561     5.7611578467330462     9.9496134264413136
6      1          2.8239586415151279     5.6796869258127884    10.9092171306144667
7      1          2.8521404433140694     8.7219136943720112    11.7054475276232584
8      1         -0.0703649368978461     8.6480401813881951    12.4178035055447928
9      1          0.0171493524285473    11.4474000311216351     9.9027287514409359
10     1          2.8314114259518264    11.5234806315764704    10.7913474860062575
11     1          2.8370713329870250    14.4457307267286303    11.5212730111348662
12     1         -0.2096224008806722    14.3440852015005635    12.5421597237546614
13     1         -0.0868202924469508    17.3478117189764198     9.8841571564839281
14     1          2.8010182466103650    17.2364641398170626    10.8597634004779486
15     1          2.8462792376897625    20.1224348087806959    11.5535663829366744
16     1         -0.1818474410744686    20.2339363973183133    12.4886234046416149
17     1          5.7574140527276230    -0.0830511599166706    10.0709821008955789
18     1          8.6017676000135381    -0.0443502764794267    10.7304039183287365
19     1          8.6606978374364392     2.8219161839932858    11.7241469941028775
20     1          5.8321678622843693     2.9056346015379848    12.4095267306265491
21     1          5.6301632859885951     5.7430390470230490     9.9550072797588225
22     1          8.6746679566214784     5.8159736325169638    10.9131764979419312
23     1          8.6998772845150860     8.5932328931969497    11.5999325970362737
24     1          5.7572331988774357     8.7236949538788782    12.3547884192009345
25     1          5.7882271897314155    11.5180326185618753    10.0652976304812221
26     1          8.4957345272842968    11.6265130282699261    10.9284699320464878
27     1          8.5949700679782897    14.5319684049519857    11.6184111945222899
28     1          5.6936416175738520    14.3418891555473831    12.3742481400059141
29     1          5.6662800635933888    17.2681286228136415     9.8976371399041501
30     1          8.6486449845142506    17.2517936197348583    10.9100401582327429
31     1          8.5844822118189619    20.2818047017876673    11.6849090361547798
32     1          5.7318316359035224    20.3095148659568387    12.5340131452958037
33     1         11.4802237613355640     0.0289105451079988     9.9919342505527826
34     1         14.5307571962047302    -0.0705580286758406    10.8277908699510625
35     1         14.3513784012290255     2.7871895512137588    11.6117409509154221
36     1         11.6204293264019576     2.8458522741014840    12.4544421841786797
37     1         11.5375457573455815     5.6934658378264125     9.8971465782446693
38     1         14.5167278898504346     5.8081209082962753    10.7089447518974428
39     1         14.5127843487541313     8.7106154383349796    11.6880081768755719
40     1         11.4016820127299336     8.5581948172745506    12.3242968733995912
41     1         11.5634678713664716    11.5198944195848263     9.9609753924597033
42     1         14.3909749917630378    11.4706334729145532    10.9222135271855336
43     1         14.2888354398185395    14.5094100391636740    11.6043825260232172
44     1         11.5359348046090471    14.3760686078609030    12.5039958865965151
45     1         11.3771301581261124    17.3196239246461339     9.9252155399266879
46     1         14.4500331786006857    17.3748414449320698    10.7211971687005754
47     1         14.4010130196622779    20.3214794331908593    11.6510695813977403
48     1         11.3895837627663781    20.3178635611420937    12.4921852077805902
49     1         17.2967187108098912     0.0127576892011083     9.9902347217704115
50     1         20.1899811799683597    -0.1479157650507160    10.8982085549858443
51     1         20.1830334129427413     2.8064167916788403    11.5352435562145690
52     1         17.2279865036402207     2.9427468580563780    12.5464585318512452
53     1         17.3268553900835975     5.8665718784912864     9.9444450919909588
54     1         20.1103851278244861     5.7987348790210840    10.8782815218891358
55     1         20.1697432979229845     8.6486693855885903    11.5180948225637323
56     1         17.2045942671465184     8.5522140947802292    12.4657809008293210
57     1         17.2827344060068029    11.5655263151311019     9.8875957379738413
58     1         20.3024739443347784    11.4564713653296408    10.8223621425819321
59     1         20.2816894819382227    14.3799594200692002    11.7311892275937115
60     1         17.3250538345687772    14.4414495356017323    12.3995690264201297
61     1         17.2794269966605896    17.3897960935787950     9.9137257023856851
62     1         20.1675267528289268    17.3492997495225261    10.8334311665666991
63     1         20.2046272007076375    20.1489005405993566    11.6199200784891268
64     1         17.3253219330807120    20.1978745536019737    12.3308764444722385
ITEM: TIMESTEP energy, energy_weight, force_weight, nsims
6        -384887.4736807516310364    1    1   250
ITEM: NUMBER OF ATOMS
64        
ITEM: BOX BOUNDS xy xz yz pp pp pp
    0.0000000000000000     23.1635698850272007      0.0000000000000014
    0.0000000000000000     23.1635698850271972      0.0000000000000014
    0.0000000000000000     23.2496688742898421      0.0000000000000014
ITEM: ATOMS id type x y z
1      1         -0.1108816926826361    -0.0307728025922580    10.0934275727000848
2      1          2.8685093202091019     0.0305666468202825    10.7389267293920945
3      1          2.9636467344408866     2.7943719984350843    11.7360259785362135
4      1          0.1091699048681341     2.8597465417215964    12.4597509711226557
5      1         -0.0613579802684476     5.6936147431676396    10.0358381428984700
6      1          2.7799457271106895     5.7333726945183008    10.8487628150880138
7      1          2.8060441213001499     8.7914920487352681    11.6976733247611833
8      1          0.0823557563692270     8.7970350910087554    12.5145783402620054
9      1         -0.1095706346271428    11.4665647131914969     9.9269692434277186
10     1          2.8179803088619049    11.5378320686567601    10.8338807020415810
11     1          2.9200853249151049    14.5417046585599827    11.6578838414497223