ITEM: TIMESTEP energy, energy_weight, force_weight, nsims
1        -300704.6380753683624789    1    1   500
ITEM: NUMBER OF ATOMS
50        
ITEM: BOX BOUNDS xy xz yz pp pp pp
   -0.6746415625890345     18.6560909957700964     -0.3255861000581773
   -0.3551933164684655     18.6532552699387431     -0.3490554625308572
    0.0000000000000000     19.9937886884397997     -0.3551933164684655
ITEM: ATOMS id type x y z
1      1         -0.1014151245018302    -0.1225522653888012     8.1250498552828709
2      1          1.6467371145614604     1.6299772330573381    10.0961834988466919
3      1         -0.1210288771357272     3.5837827492880372     8.1695500307667306
4      1          1.6732378767199545     5.4412726045320463    10.0075250416655432
5      1         -0.2080332246027920     7.3954468706863121     8.1510637737453990
6      1          1.4803349843842142     9.0547425100616792    10.0749081083033225
7      1         -0.3506984128783721    11.0395185287595332     8.0328524975038675
8      1          1.4953721742289747    12.9477044286424370     9.9832685772287277
9      1         -0.4412038148836743    14.7870060704724562     8.1803726685837841
10     1          1.4415850330137390    16.5601691530504809     9.9804994374953786
11     1          3.5052404379216342    -0.2245863812740475     8.1697199779705834
12     1          5.2984945900033757     1.6488737475771651    10.0535107556489542
13     1          3.5913694563897276     3.6334353714865890     8.0733979015851567
14     1          5.2818704973836690     5.3804420979946679    10.0169960993672582
15     1          3.4834165298580495     7.3296546273674217     7.9996748045542718
16     1          5.2358168420323832     9.2425260070336801     9.9325683278725823
17     1          3.4377157825379046    10.9812474819176007     8.1558142979377735
18     1          5.2346226329473495    12.9346780491079230    10.0043140392021783
19     1          3.2759418005398628    14.8366389963014527     8.0685294140395207
20     1          5.1156957736500708    16.5754277637764886     9.9670456170869279
21     1          7.3756799406091380    -0.1856355585143991     8.0302273130490764
22     1          9.1538630723160654     1.6863773188130680     9.9491791675149379
23     1          7.2418280333233538     3.5883762668781882     8.1700138866643019
24     1          9.0012711163640144     5.4943677144262457    10.0515973500714697
25     1          7.2318370330987056     7.2841918216694621     8.0979102865171821
26     1          8.9312013014267126     9.1113473390693205    10.0479424854992256
27     1          7.1228037899064276    11.0030728529638591     8.0753253028147221
28     1          8.8479350465626752    12.9197796717197235     9.9901404424009446
29     1          7.1403748268556386    14.8434631021213850     8.1248719105635434
30     1          8.9257810720995447    16.6149198055379692     9.9288614794497470
31     1         11.1219081015654773    -0.1162723025734243     8.1778974375441553
32     1         12.8035173306276473     1.6181890648920660    10.0522551457193199
33     1         10.8995262567509066     3.6599650736898290     7.9958499927781732
34     1         12.8758582640069008     5.3937842358393011     9.9532918898481508
35     1         10.9601478007058102     7.4065446563390784     8.0488455290757521
36     1         12.7136561195751554     9.1174997294468501     9.9673775139791569
37     1         10.8506591558661238    10.9764459930755454     8.1460573290578147
38     1         12.7485166162862331    12.8126929878516993     9.9007981976466528
39     1         10.8825809137402683    14.6986538943874230     8.0934916592170367
40     1         12.5260422400027682    16.5393264634957582    10.0429480370848516
41     1         14.8699761081641899    -0.0745256757000633     8.0019880859055235
42     1         16.5742636945299324     1.7074275573278845     9.9799416107909718
43     1         14.7163389541615448     3.5821135551635948     8.1539948631671244
44     1         16.4651681107223204     5.3888075965443178    10.0223784272821863
45     1         14.7135834036461421     7.3946678170176661     8.1667768922756441
46     1         16.3786214166518000     9.1124597978912014     9.9441627259330083
47     1         14.6796899772279286    11.0515210613784305     8.0390945583323994
48     1         16.4250181972875531    12.9443660850580997    10.0503297438686250
49     1         14.4744661077621792    14.8393030473749317     8.1603828786530812
50     1         16.3359340539012585    16.5892681817732459    10.0510615165346202
ITEM: TIMESTEP energy, energy_weight, force_weight, nsims
2        -300704.7212884980253875    1    1   500
ITEM: NUMBER OF ATOMS
50        
ITEM: BOX BOUNDS xy xz yz pp pp pp
   -0.5397207125076267     18.6560909957700964     -0.2604763424829396
   -0.2831621491337958     18.6542813549435138     -0.2792443700246871
    0.0000000000000000     19.9960274193592902     -0.2831621491337958
ITEM: ATOMS id type x y z
1      1         -0.1085703337890962    -0.1861606430160744     8.0242618319914634
2      1          1.7267739741869383     1.6413719508770943     9.9387914752717279
3      1         -0.2152173859754461     3.5957286055252231     8.1149918068040634
4      1          1.7056518799914422     5.4311026958386641     9.9688475040857689
5      1         -0.2856425358923785     7.2734616948816910     8.1572434127411704
6      1          1.6520749945933140     9.1612756611205306     9.9165898860280137
7      1         -0.2923833503627565    11.0976856170678921     8.0324162119730786
8      1          1.5734572113726844    12.9383637443014656     9.9316748891131788
9      1         -0.3323921570764561    14.7567248833166467     8.1277812659414863
10     1          1.5406183485455744    16.6678026493578280    10.0251783129288459
11     1          3.6377483072459542    -0.1615040036961147     8.1552438099992344
12     1          5.4007264696767479     1.7040837666276489     9.9119288120365621
13     1          3.5577880226989143     3.5544574642024744     8.0450716977267920
14     1          5.3230584818430264     5.5324618237139802    10.0213310772533593
15     1          3.5722437822853976     7.4384782999714885     8.0429741144504998
16     1          5.2451882046937870     9.1164565529273727    10.0517690301911085
17     1          3.3877683008006421    11.0259780832979928     8.1828863183037583
18     1          5.3622983538156479    12.8345280325382163    10.0613251316948205
19     1          3.3931587506186673    14.7352018464055377     8.1617485177187525
20     1          5.2668216594779027    16.5690615740383329     9.9539284680281828
21     1          7.3129845887245617    -0.1041666569467095     8.1370874171024568
22     1          9.1988277554722888     1.7703636157867300    10.0051102998107773
23     1          7.2222964370546681     3.5558240864534700     8.1307486764105192
24     1          9.1987151191811183     5.5447560928456854     9.9023007248341397
25     1          7.2331127316795198     7.3623023921195152     8.0101226410032353
26     1          9.0734571610327315     9.1507593171584958    10.0051782863040017
27     1          7.2435891063117017    11.0418945826705954     8.1508286871450402
28     1          9.0100503244438244    12.9181466693987890     9.9984316266527102
29     1          7.1122033296094349    14.7654594531727490     8.1922844511908561
30     1          8.8865446927673002    16.5858679518475327    10.0297534040023937
31     1         11.0026728296483896    -0.0630584959830095     8.0329081142475953
32     1         12.8989566060145897     1.7845875398205833    10.0373818884628800
33     1         11.0220193049028783     3.6158176175904484     7.9961554158508124
34     1         12.7609838697326623     5.4146164587057326    10.0536526559740125
35     1         10.9055523525022320     7.3678467227508921     8.1229962165800345
36     1         12.8424092593765700     9.1793545550799163     9.9020267792584953
37     1         10.8753427807478449    11.0262286199792872     8.0386009832538861
38     1         12.8143020455387795    12.8419476001460335    10.0311051354559435
39     1         10.7960209096159545    14.8857567590275188     8.0979951834976092
40     1         12.7482710581190108    16.6843548467048990    10.0663921250428849
41     1         14.7390763529261228    -0.0286998861818758     8.1674553839442368
42     1         16.7082867086168854     1.7319704586305462    10.0263740753685227
43     1         14.6878791844860324     3.5595368505716469     8.1872214570482740
44     1         16.5073398531539155     5.4914462819979475    10.0334766643078783
45     1         14.6724282119381932     7.3406820363029892     8.1136660701861611
46     1         16.5994101152290874     9.2259183994434242     9.8981435507336553
47     1         14.7132939734198249    11.0228078564042473     8.1770194838589170
48     1         16.4922410839668068    13.0060789205575507    10.0327028180467508
49     1         14.5231681669148553    14.7717352604781773     8.1121563701159989
50     1         16.3997123260606408    16.6879552588600575    10.0395094657803003
ITEM: TIMESTEP energy, energy_weight, force_weight, nsims
3        -300704.8511253616889007    1    1   500
ITEM: NUMBER OF ATOMS
50        
ITEM: BOX BOUNDS xy xz yz pp pp pp
   -0.4047812063352232     18.6560909957700964     -0.1953479288167080
   -0.2116346962560148     18.6550649107653292     -0.2094332775185152
    0.0000000000000000     19.9977624358219046     -0.2116346962560148
ITEM: ATOMS id type x y z
1      1         -0.1292010089364146    -0.1605747627526076     8.0740565879382231
2      1          1.7065877791968138     1.8045442745553135     9.9309308209302731
3      1         -0.1655348949834322     3.6755377071106308     8.1929872806965420
4      1          1.7510564718331127     5.5326917198931902     9.9565019597569595
5      1         -0.0885072532444744     7.4192199250042199     8.1887017602065448
6      1          1.6439199645420732     9.2914233173273715     9.9904361628343050
7      1         -0.1742121586132644    11.0607659298027787     8.1648244318581753
8      1          1.6547856571527082    12.9419309899621400     9.9909061102515473
9      1         -0.1626865768727226    14.7800148108494280     8.1167218140950492
10     1          1.5548764128789454    16.6274470331995765    10.0415884393688941
11     1          3.6131009352944226    -0.1477907250528415     8.1719156384179161
12     1          5.4028265684134862     1.8179453915085670    10.0156073464122723
13     1          3.5149264378691703     3.7370370958607637     8.0698430593929942
14     1          5.4586733139375401     5.5528040143793929    10.0326274420214006
15     1          3.5711512471967186     7.3412229277691567     8.0224903577212121
16     1          5.4475000739747328     9.2916255671013044     9.9432974372205862
17     1          3.5594102699139842    11.1393707411952168     8.0871031281513517
18     1          5.2728957053624299    13.0014274888454580     9.9530163497643951
19     1          3.4615937762053881    14.7989245872213093     8.1744453553660481
20     1          5.3009130697067164    16.7004663320165854     9.9880344315657617
21     1          7.4433318147000351    -0.1535226998787563     8.0156671211781099
22     1          9.1382597756862687     1.8177103443770348    10.0494515595586584
23     1          7.3330930864723758     3.6843537389783569     8.0548207402512055
24     1          9.1416633608315987     5.4683069545899849    10.0408125261863841
25     1          7.2139511781082266     7.3732310679713233     8.0507151996231308
26     1          9.1005107297374348     9.2065092211174679     9.9705143918957386
27     1          7.3264396613690188    11.1821497177420586     8.1162658651115116
28     1          9.0923413144147123    13.0290604623315645    10.0181350635841628
29     1          7.1968362480794248    14.9249383990026612     8.0605041043354664
30     1          9.0454830891177185    16.7320457563017371     9.9941917426197513
31     1         11.0848698103361230    -0.0380347335151714     8.0403403604714256
32     1         12.8735517411398988     1.8228695179874841     9.9495807341779212
33     1         10.9823769270506304     3.6600844113104518     8.0524430062975867
34     1         12.9496233329105799     5.4630772151007641     9.9987512324551187
35     1         11.0294513575249873     7.4270335029816907     8.1928532956882218
36     1         12.9299886409730505     9.2350480508925905    10.0741347977331941
37     1         10.9092152399323901    11.1104124604947216     8.0666574158369677
38     1         12.7581185588315389    12.9193305655310411    10.0767345068498511
39     1         11.0380104696492829    14.8775949731337231     8.1795467845634260
40     1         12.7526832631195308    16.7154704986139286    10.0492115864094291
41     1         14.7525303126041560    -0.1603440037870211     8.1749393000982131
42     1         16.6649265197540863     1.6885494750334233    10.0444021245436144
43     1         14.8885371817613450     3.6956214967968251     8.1834923430920146
44     1         16.5655615413259092     5.5188519715698767    10.0162172781665664
45     1         14.7213534468983589     7.4245107503355374     8.0270338493466298
46     1         16.5165881171827174     9.2752693543277527    10.0865574077583258
47     1         14.7624383376888044    11.1959665117565272     8.0950322409571562
48     1         16.4705476400165161    13.0398538212402304    10.0470878240387460
49     1         14.5995954768407525    14.8924310130333524     8.0149372028492021
50     1         16.5847424547015443    16.7401928451714319    10.0681874631847812
ITEM: TIMESTEP energy, energy_weight, force_weight, nsims
4        -300704.8059815194574185    1    1   500
ITEM: NUMBER OF ATOMS
50        
ITEM: BOX BOUNDS xy xz yz pp pp pp
   -0.2698603562538144     18.6560909957700964     -0.1302381712414715
   -0.1405923017441233     18.6556432495862019     -0.1396221850123429
    0.0000000000000000     19.9990123939186155     -0.1405923017441233
ITEM: ATOMS id type x y z
1      1         -0.1370082416881689    -0.0959951127345351     8.1812839857587605
2      1          1.7469600996681998     1.7814843354411831    10.0598952147839853
3      1         -0.1099269487785570     3.6793595688587599     8.0033467727863492
4      1          1.7929968968346335     5.5454288479640503     9.9000571080280686
5      1         -0.0516559256951561     7.3991416607521963     8.1840938470001063
6      1          1.7663029001858013     9.2041410890882265     9.9856208826542101
7      1         -0.1211134476718754    11.2038985414943983     8.0100084438147618
8      1          1.7236240556179778    13.0252234823887623     9.9758073672725143
9      1         -0.2181950310211543    14.9229858599479002     8.0435847857229117
10     1          1.6869781463277915    16.7172420116328908     9.9132404569981389
11     1          3.6760162335835540    -0.0567333042808905     8.1209009676378017
12     1          5.4605678573264607     1.8204828343786668     9.9544364226283726
13     1          3.6129014415549618     3.7322687105787287     8.1522394200590718
14     1          5.5137997864996358     5.4914379397626840    10.0732905532854300
15     1          3.6413876520455721     7.3603877024526136     8.1141193025350233
16     1          5.4076045382548097     9.1757131038322548     9.9586262157248981
17     1          3.6718555784281253    11.1647309948508937     8.0131962863903539
18     1          5.5157049230427608    12.9674193244397404    10.0232590239795645
19     1          3.6298159446162610    14.8073062360075323     8.0655697000475470
20     1          5.3663597941553354    16.6513204928530207    10.0841320179041762
21     1          7.4521541803759508    -0.1378926461273018     8.1174271391849793
22     1          9.2428884783151144     1.8829899446820144    10.0407521601205261
23     1          7.3519513120127327     3.7259279645174521     8.0372890966213077
24     1          9.2303358280915830     5.5842185204693440     9.9076307340216463
25     1          7.4391313774472820     7.3664349478456703     8.1307024836120618
26     1          9.2694307107699370     9.2265243154200238    10.0442419877832645
27     1          7.3240736232117456    11.0469613261408419     8.1361102165633774
28     1          9.1153320533132423    13.0636317557844635     9.9174202505884690
29     1          7.2963265655576324    14.8718493281765340     8.0183100338594784
30     1          9.2178248846154034    16.7826053747063213     9.9820310599295023
31     1         11.1672047691912208    -0.0511843617052422     8.0172980838323458
32     1         13.0075881806014149     1.7589119577788066     9.9926205369920815
33     1         11.0755296598951603     3.7464429502110250     8.0126983109817438
34     1         13.0339546662259096     5.5765442640526341    10.0744544958067568
35     1         11.1675673336057297     7.4675993294660294     8.1295805390167626
36     1         12.9513171492282506     9.3318943053212777     9.9318395385244838
37     1         11.0852954520838072    11.1151714287062582     8.0854987158980869
38     1         12.9801277528104055    13.0086652801982208    10.0112896150618038
39     1         11.0594919902581452    14.8853313048966776     8.1035598239910360
40     1         12.7889284426179337    16.7938768799476676    10.0786602881131966
41     1         14.8587272165136302    -0.0118253428388134     8.0232297909083830
42     1         16.6210351451724989     1.7601509301542535     9.9416350547950252
43     1         14.8572755786537201     3.6460008599588396     8.1732643817887993
44     1         16.6229550658748551     5.5137863969764886    10.0097436914037541
45     1         14.7570606634201056     7.4819128307282616     8.0970781440741657
46     1         16.6138131408968448     9.2753792481418351     9.9596541649619450
47     1         14.8185108315665666    11.0710948049617901     8.0025508120930695
48     1         16.6426459982460244    12.9309547723309759     9.9017510243778339
49     1         14.6775979634477629    14.8319313622272109     8.0759651866899063
50     1         16.5380456167087964    16.7154517074714910    10.0166453505808963
ITEM: TIMESTEP energy, energy_weight, force_weight, nsims
5        -300704.8165379084530286    1    1   500
ITEM: NUMBER OF ATOMS
50        
ITEM: BOX BOUNDS xy xz yz pp pp pp
   -0.1349208500814044     18.6560909957700964     -0.0651097575752353
   -0.0700536216891152     18.6559790592241264     -0.0698110925061691
    0.0000000000000000     19.9997399814674566     -0.0700536216891152
ITEM: ATOMS id type x y z
1      1         -0.0951530767612454    -0.0146857963262808     8.0945987613472283
2      1          1.8300671586134869     1.8453569720789078    10.0523093089651354
3      1          0.0183744922793003     3.7629984383283754     7.9972480270134358
4      1          1.7478892854344541     5.6132749930571810    10.0997746918631535
5      1         -0.0235254431784621     7.4807128130655647     8.0533512976094492
6      1          1.7053526176171248     9.2991812840068313    10.0844048916873952
7      1          0.0097496654867385    11.1940954066191871     8.1722637516172600
8      1          1.7846402398374639    12.9961649829043253     9.9280389246162901
9      1         -0.1555960666161276    14.9014715553373360     8.1524740089055978
10     1          1.8271555715902084    16.7543063528079834     9.9464726849572092
11     1          3.7076145299300767     0.0585384620525458     8.1916654993732827
12     1          5.5881963765196740     1.7640349135586382     9.9198730307818561
13     1          3.6721818181779140     3.6909670260858722     8.1492360510025996
14     1          5.4517497822846943     5.6204298619211590    10.0171337662857294
15     1          3.6009627193696634     7.3731921474234756     8.1318342772447227
16     1          5.5932925679859258     9.2840444864359970    10.0288236143048994
17     1          3.6200846199288548    11.0973781014833097     8.1043686343281749
18     1          5.4507739679640679    13.0846691762756304     9.9892241291415935
19     1          3.5653690818705441    14.9352320353859191     8.0484373614960028
20     1          5.5171705108865101    16.8129215167891921    10.0700550782506930
21     1          7.4862948815792132    -0.0814378962097163     8.0884948407048842
22     1          9.2334409358623972     1.7802711408713445    10.0226876940785843
23     1          7.4412159616183082     3.7783431944090036     8.0477853699726065
24     1          9.2241047243434924     5.5725183297913041     9.9972120252901906
25     1          7.3769660116295439     7.5037632448678186     8.0967487333952359
26     1          9.2895503617334079     9.2236450176146612    10.0476753692114293
27     1          7.4412095190432428    11.1685988672450058     8.0772909863672648
28     1          9.1890382887601412    13.1098322204958642    10.0888628337292641
29     1          7.4661691003678996    14.9749566222322130     8.1559079642604164
30     1          9.1871744478288999    16.8061763316537665    10.0863328666216070
31     1         11.2382364125131602     0.0366394657841828     8.0959687435359573
32     1         12.9410474899329877     1.7795948035204554    10.0256336557778543
33     1         11.1749006669402675     3.6828159795951181     8.0864588671747715
34     1         13.0683337996132725     5.6388551818080925    10.0089518726593134
35     1         11.2146125663574132     7.4377097730618837     7.9987800070960171
36     1         12.9906109838825135     9.3400504137561420    10.0557932636699086
37     1         11.1505750780744926    11.1434235455594930     8.0248316683958762
38     1         12.9359837461065847    12.9356043347643102    10.0839828971737848
39     1         11.1406183484323105    14.8146419120153983     8.1532879983228437
40     1         13.0385503700543435    16.7667823625839993     9.9462566877654091
41     1         14.8297558615051681    -0.0396743084273366     8.1411341563361059
42     1         16.7383967157127884     1.8097537506230934     9.9586125271259593
43     1         14.8209854363995781     3.7003708624813951     8.0141358074537870
44     1         16.6806826152484362     5.5313215767173194    10.0016499675920798
45     1         14.8449184766078925     7.5222500072322838     8.1445261122369637
46     1         16.6863573734644781     9.2494195225006202     9.9120291327611252
47     1         14.8057981836899657    11.1445810218684862     8.0778629789307352
48     1         16.7400210958246447    13.0329165553631068     9.9697843818796059
49     1         14.9147120554325312    14.8084564572798918     8.0033759473437573
50     1         16.7470251304186561    16.8383410636082580    10.0847468872410779
ITEM: TIMESTEP energy, energy_weight, force_weight, nsims
6        -300704.6877022881526500    1    1   500
ITEM: NUMBER OF ATOMS
50        
ITEM: BOX BOUNDS xy xz yz pp pp pp
    0.0000000000000000     18.6560909957701000      0.0000000000000011
    0.0000000000000000     18.6560909957700964      0.0000000000000012
    0.0000000000000000     19.9999825106503977      0.0000000000000012
ITEM: ATOMS id type x y z
1      1          0.0217604645374667     0.0399762717857367     8.1549068687929029
2      1          1.9067737643591771     1.7953838418507324     9.9940952604810587
3      1          0.0360472990220277     3.7103569582025497     8.1103629077451842
4      1          1.8319684362934381     5.6235465522551715     9.9573492926142411
5      1          0.0734490302503478     7.5017130666814342     8.0801049342048206
6      1          1.8491730834097375     9.3612066996300296     9.9111073330513655
7      1         -0.0835177225607628    11.1217372322824630     8.1231148965939752
8      1          1.8307707152515100    13.0614781750402660     9.9425673055406190
9      1          0.0838684570714859    14.9036440306719911     8.1511228721018885
10     1          1.8263156407217205    16.8512056067752169     9.9923312620236189
11     1          3.6543159264603555    -0.0756653738606439     8.0204489863720525
12     1          5.5968795357858179     1.8435650624564084    10.0914691753306638
13     1          3.8053351174620156     3.6752629854304066     8.1557688680391127
14     1          5.5299377500747955     5.5516067997663825    10.0871311791241034
15     1          3.6428666834162522     7.4408624946805313     8.0849049300073759
16     1          5.6335480826380051     9.3866629357937583     9.9861832673998467
17     1          3.7416227011023615    11.2454644277664109     8.1320228888042170
18     1          5.5120894678191430    13.0810540113221272    10.0179372396320048
19     1          3.6525417322066591    14.9602578044077550     8.0703649427221329
20     1          5.5258763190650173    16.8609944577207003     9.9446093037549570
21     1          7.4419930537948744    -0.0340790814219727     8.0064569986076020
22     1          9.3892635948785674     1.9023914485842706     9.9864452671707351
23     1          7.5437359116494065     3.8212692847815024     8.0543509567258553
24     1          9.3140496984200212     5.6468536067361867    10.0188932387960143
25     1          7.4287920038062687     7.4895343704793955     8.0728409405569526
26     1          9.4124381911135124     9.4125575900958882    10.0651371983571405
27     1          7.5457731567861455    11.1138195872638583     8.1522988710735156
28     1          9.3274037283547937    12.9915663396427163     9.9252053207231246
29     1          7.4041454419917567    14.9201602680305463     8.0492649611733977
30     1          9.3368455760077538    16.7842768803278943     9.9683832829653678
31     1         11.1300242679027850    -0.0650090146838600     8.1288008916217507
32     1         13.0891992606508811     1.8451788143275425     9.9286933176729821
33     1         11.1184537602672080     3.7566147358265614     8.0510809595853647
34     1         13.0712595635493471     5.6042916007384376     9.9685632828079633
35     1         11.2048501176686184     7.5161081064937703     8.0698749431506229
36     1         13.0251790187897960     9.3786613383656725     9.9017133412661131
37     1         11.2267337124066575    11.1558424322318306     8.0841889306334949
38     1         13.0030958038781037    13.1389550553365986    10.0138832431770961
39     1         11.1081313451192507    15.0027545140870178     8.0451789647464711
40     1         13.1356529272303497    16.7600053059423963    10.0152992419388518
41     1         14.8863311782279162    -0.0289486563981360     8.1712208545268421
42     1         16.8678580335980435     1.7962942590913260     9.9364053109290875
43     1         14.8741748693350715     3.8211200360535362     8.1427768794001931
44     1         16.8210610949442554     5.6514635268212423    10.0704351937242116
45     1         14.9245780303783437     7.3693499666755446     8.1491648738140956
46     1         16.8454483370939236     9.2416827214474289     9.9435993046381697
47     1         14.9579798956971715    11.2255303945374312     8.0097129957603350
48     1         16.8242046462770425    13.1172244405447262     9.9699692815784626
49     1         14.9238970830570015    14.9169588828156705     8.1652448597526579
50     1         16.7059940569005434    16.7695908054960228    10.0065272496096789
ITEM: TIMESTEP energy, energy_weight, force_weight, nsims
7        -300704.7461772654205561    1    1   500
ITEM: NUMBER OF ATOMS
50        
ITEM: BOX BOUNDS xy xz yz pp pp pp
    0.0000000000000000     18.7910118458515072      0.0651097575752376
    0.0000000000000000     18.7255476225473529      0.0698110925061717
    0.0000000000000000     19.9997399814674566      0.0695685633232262
ITEM: ATOMS id type x y z
1      1         -0.0493926680493841     0.0982498374387513     8.1398261733413175
2      1          1.9817080628662682     1.8087710841870253     9.9545545798837196
3      1          0.0372807004387110     3.8401494424168385     8.1776156820363006
4      1          1.8284421637423929     5.6480698929057427    10.0733490354256396
5      1          0.1358140526602969     7.4072558657783869     8.1747257196089773
6      1          2.0173099065380469     9.3199573225496799     9.9550625732792497
7      1          0.1083421329243195    11.2133525176810611     8.0489233551775516
8      1          1.9033740731094282    13.0669413380699275    10.0016219679561047
9      1          0.0637054257171413    14.9533789613220787     8.1816136300585960
10     1          1.9125198807539232    16.8525408616486629     9.9236089822103946
11     1          3.7858899893319076    -0.0059599119458020     8.1679118081972923
12     1          5.6227565078001254     1.8936401672100438     9.9935060734716252
13     1          3.6834045490207790     3.7657792927231086     8.1728017446227614
14     1          5.6431259573651529     5.6018636882244541     9.9872661545974069
15     1          3.7208752740667639     7.4670601345026881     8.0649691465646836
16     1          5.6038879045740853     9.3340981802059151     9.9318928745107193
17     1          3.7170241937477781    11.2368506042822194     8.1789676644590479
18     1          5.6070654332715550    13.0699960778128492    10.0061299093479281
19     1          3.8651850545191486    14.9313213457966008     8.0999046923643103
20     1          5.7002538927859296    16.7540703219239830    10.0977567180990224
21     1          7.5326084005509832     0.0815249355007884     8.0873188559939724
22     1          9.3479910396461303     1.8739552592451216    10.0302295960255954
23     1          7.5418227642852802     3.8097202674665342     8.1772496867946405
24     1          9.4733732170779792     5.5548028493840071     9.9955220472617583
25     1          7.5412640334712568     7.5184534018744058     8.0429154332871189
26     1          9.3738544402833135     9.3039876825257135    10.0724830466844413