ITEM: TIMESTEP energy, energy_weight, force_weight, nsims
1        -6011.418067056556    1    1   1
ITEM: NUMBER OF ATOMS
1         
ITEM: BOX BOUNDS xy xz yz pp pp pp
    0.0000000000000000     19.9999895373305030      0.0000000000000012
    0.0000000000000000     19.9999895373304994      0.0000000000000012
    0.0000000000000000     19.9999895373304994      0.0000000000000012
ITEM: ATOMS id type x y z
1      1          9.9999947686652497     9.9999947686652497     9.9999947686652497
