ITEM: TIMESTEP energy, energy_weight, force_weight, nsims
1        -48116.2457187315958436    1    1   397
ITEM: NUMBER OF ATOMS
8         
ITEM: BOX BOUNDS xy xz yz pp pp pp
    0.0000000000000000      6.2379414112120006      0.0000000000000004
    0.0000000000000000      6.6496704961176363      0.0000000000000004
    0.0000000000000000      6.6496704961176363      0.0000000000000004
ITEM: ATOMS id type x y z
1      1          1.5594872241854234     1.6624196189305580     1.6624196189305580
2      1          3.1189707056059999     0.0000000000000002     3.3248352480588181
3      1          1.5594872241854238     4.9872508771870789     4.9872508771870789
4      1          3.1189707056059999     3.3248352480588181     0.0000000000000000
5      1          4.6784541870265768     1.6624196189305582     4.9872508771870789
6      1          0.0000000000000000     0.0000000000000000     0.0000000000000000
7      1          4.6784541870265768     4.9872508771870789     1.6624196189305580
8      1          0.0000000000000004     3.3248352480588181     3.3248352480588181
ITEM: TIMESTEP energy, energy_weight, force_weight, nsims
2        -48116.2548817610731930    1    1   397
ITEM: NUMBER OF ATOMS
8         
ITEM: BOX BOUNDS xy xz yz pp pp pp
    0.0000000000000000      6.2465670003707006      0.0000000000000004
    0.0000000000000000      6.6496142429356189      0.0000000000000004
    0.0000000000000000      6.6496142429356189      0.0000000000000004
ITEM: ATOMS id type x y z
1      1          1.5616436240627751     1.6624055556181776     1.6624055556181776
2      1          3.1232835001853498     0.0000000000000002     3.3248071214678094
3      1          1.5616436240627756     4.9872086873174419     4.9872086873174419
4      1          3.1232835001853498     3.3248071214678094     0.0000000000000000
5      1          4.6849233763079248     1.6624055556181778     4.9872086873174419
6      1          0.0000000000000000     0.0000000000000000     0.0000000000000000
7      1          4.6849233763079248     4.9872086873174419     1.6624055556181776
8      1          0.0000000000000004     3.3248071214678094     3.3248071214678094
ITEM: TIMESTEP energy, energy_weight, force_weight, nsims
3        -48116.2638231537275715    1    1   397
ITEM: NUMBER OF ATOMS
8         
ITEM: BOX BOUNDS xy xz yz pp pp pp
    0.0000000000000000      6.2552455072543003      0.0000000000000004
    0.0000000000000000      6.6496324812411753      0.0000000000000004
    0.0000000000000000      6.6496324812411753      0.0000000000000004
ITEM: ATOMS id type x y z
1      1          1.5638132533872271     1.6624101152000383     1.6624101152000383
2      1          3.1276227536271497     0.0000000000000002     3.3248162406205877
3      1          1.5638132533872275     4.9872223660411379     4.9872223660411379
4      1          3.1276227536271497     3.3248162406205877     0.0000000000000000
5      1          4.6914322538670730     1.6624101152000386     4.9872223660411379
6      1          0.0000000000000000     0.0000000000000000     0.0000000000000000
7      1          4.6914322538670730     4.9872223660411379     1.6624101152000383
8      1          0.0000000000000004     3.3248162406205877     3.3248162406205877
ITEM: TIMESTEP energy, energy_weight, force_weight, nsims
4        -48116.2725493042380549    1    1   397
ITEM: NUMBER OF ATOMS
8         
ITEM: BOX BOUNDS xy xz yz pp pp pp
    0.0000000000000000      6.2639240141379000      0.0000000000000004
    0.0000000000000000      6.6496627188525261      0.0000000000000004
    0.0000000000000000      6.6496627188525261      0.0000000000000004
ITEM: ATOMS id type x y z
1      1          1.5659828827116791     1.6624176746119472     1.6624176746119472
2      1          3.1319620070689496     0.0000000000000002     3.3248313594262631
3      1          1.5659828827116795     4.9872450442405789     4.9872450442405789
4      1          3.1319620070689496     3.3248313594262631     0.0000000000000000
5      1          4.6979411314262203     1.6624176746119474     4.9872450442405789
6      1          0.0000000000000000     0.0000000000000000     0.0000000000000000
7      1          4.6979411314262203     4.9872450442405789     1.6624176746119472
8      1          0.0000000000000004     3.3248313594262631     3.3248313594262631
ITEM: TIMESTEP energy, energy_weight, force_weight, nsims
5        -48116.2810623895202298    1    1   397
ITEM: NUMBER OF ATOMS
8         
ITEM: BOX BOUNDS xy xz yz pp pp pp
    0.0000000000000000      6.2725496032966008      0.0000000000000004
    0.0000000000000000      6.6496490128971883      0.0000000000000004
    0.0000000000000000      6.6496490128971883      0.0000000000000004
ITEM: ATOMS id type x y z
1      1          1.5681392825890310     1.6624142481190010     1.6624142481190010
2      1          3.1362748016483000     0.0000000000000002     3.3248245064485942
3      1          1.5681392825890315     4.9872347647781874     4.9872347647781874
4      1          3.1362748016483000     3.3248245064485942     0.0000000000000000
5      1          4.7044103207075691     1.6624142481190012     4.9872347647781874
6      1          0.0000000000000000     0.0000000000000000     0.0000000000000000
7      1          4.7044103207075691     4.9872347647781874     1.6624142481190010
8      1          0.0000000000000004     3.3248245064485942     3.3248245064485942
ITEM: TIMESTEP energy, energy_weight, force_weight, nsims
6        -48116.2893599605376949    1    1   397
ITEM: NUMBER OF ATOMS
8         
ITEM: BOX BOUNDS xy xz yz pp pp pp
    0.0000000000000000      6.2811751924553008      0.0000000000000004
    0.0000000000000000      6.6496540539454969      0.0000000000000004
    0.0000000000000000      6.6496540539454969      0.0000000000000004
ITEM: ATOMS id type x y z
1      1          1.5702956824663827     1.6624155083825904     1.6624155083825904
2      1          3.1405875962276499     0.0000000000000002     3.3248270269727485
3      1          1.5702956824663832     4.9872385455629065     4.9872385455629065
4      1          3.1405875962276499     3.3248270269727485     0.0000000000000000
5      1          4.7108795099889171     1.6624155083825907     4.9872385455629065
6      1          0.0000000000000000     0.0000000000000000     0.0000000000000000
7      1          4.7108795099889171     4.9872385455629065     1.6624155083825904
8      1          0.0000000000000004     3.3248270269727485     3.3248270269727485
ITEM: TIMESTEP energy, energy_weight, force_weight, nsims
7        -48116.2974465071820305    1    1   397
ITEM: NUMBER OF ATOMS
8         
ITEM: BOX BOUNDS xy xz yz pp pp pp
    0.0000000000000000      6.2898007816139998      0.0000000000000004
    0.0000000000000000      6.6496654435332632      0.0000000000000004
    0.0000000000000000      6.6496654435332632      0.0000000000000004
ITEM: ATOMS id type x y z
1      1          1.5724520823437342     1.6624183557829488     1.6624183557829488
2      1          3.1449003908069995     0.0000000000000002     3.3248327217666316
3      1          1.5724520823437347     4.9872470877503146     4.9872470877503146
4      1          3.1449003908069995     3.3248327217666316     0.0000000000000000
5      1          4.7173486992702651     1.6624183557829491     4.9872470877503146
6      1          0.0000000000000000     0.0000000000000000     0.0000000000000000
7      1          4.7173486992702651     4.9872470877503146     1.6624183557829488
8      1          0.0000000000000004     3.3248327217666316     3.3248327217666316
ITEM: TIMESTEP energy, energy_weight, force_weight, nsims
8        -48116.3053213491730276    1    1   397
ITEM: NUMBER OF ATOMS
8         
ITEM: BOX BOUNDS xy xz yz pp pp pp
    0.0000000000000000      6.2983734530478008      0.0000000000000004
    0.0000000000000000      6.6496337405242762      0.0000000000000004
    0.0000000000000000      6.6496337405242762      0.0000000000000004
ITEM: ATOMS id type x y z
1      1          1.5745952527739859     1.6624104300211913     1.6624104300211913
2      1          3.1491867265239000     0.0000000000000002     3.3248168702621381
3      1          1.5745952527739864     4.9872233105030856     4.9872233105030856
4      1          3.1491867265239000     3.3248168702621381     0.0000000000000000
5      1          4.7237782002738147     1.6624104300211915     4.9872233105030856
6      1          0.0000000000000000     0.0000000000000000     0.0000000000000000
7      1          4.7237782002738147     4.9872233105030856     1.6624104300211913
8      1          0.0000000000000004     3.3248168702621381     3.3248168702621381
ITEM: TIMESTEP energy, energy_weight, force_weight, nsims
9        -48116.3129922417356283    1    1   397
ITEM: NUMBER OF ATOMS
8         
ITEM: BOX BOUNDS xy xz yz pp pp pp
    0.0000000000000000      6.3069461244816001      0.0000000000000004
    0.0000000000000000      6.6496151213169341      0.0000000000000004
    0.0000000000000000      6.6496151213169341      0.0000000000000004
ITEM: ATOMS id type x y z
1      1          1.5767384232042372     1.6624057752137700     1.6624057752137700
2      1          3.1534730622407996     0.0000000000000002     3.3248075606584671
3      1          1.5767384232042376     4.9872093461031648     4.9872093461031648
4      1          3.1534730622407996     3.3248075606584671     0.0000000000000000
5      1          4.7302077012773625     1.6624057752137702     4.9872093461031648
6      1          0.0000000000000000     0.0000000000000000     0.0000000000000000
7      1          4.7302077012773625     4.9872093461031648     1.6624057752137700
8      1          0.0000000000000004     3.3248075606584671     3.3248075606584671
ITEM: TIMESTEP energy, energy_weight, force_weight, nsims
10       -48116.3204503411907353    1    1   397
ITEM: NUMBER OF ATOMS
8         
ITEM: BOX BOUNDS xy xz yz pp pp pp
    0.0000000000000000      6.3155717136403000      0.0000000000000004
    0.0000000000000000      6.6496591417201580      0.0000000000000004
    0.0000000000000000      6.6496591417201580      0.0000000000000004
ITEM: ATOMS id type x y z
1      1          1.5788948230815889     1.6624167803277821     1.6624167803277821
2      1          3.1577858568201496     0.0000000000000002     3.3248295708600790
3      1          1.5788948230815893     4.9872423613923766     4.9872423613923766
4      1          3.1577858568201496     3.3248295708600790     0.0000000000000000
5      1          4.7366768905587104     1.6624167803277823     4.9872423613923766
6      1          0.0000000000000000     0.0000000000000000     0.0000000000000000
7      1          4.7366768905587104     4.9872423613923766     1.6624167803277821
8      1          0.0000000000000004     3.3248295708600790     3.3248295708600790
ITEM: TIMESTEP energy, energy_weight, force_weight, nsims
11       -48116.3277065320799011    1    1   397
ITEM: NUMBER OF ATOMS
8         
ITEM: BOX BOUNDS xy xz yz pp pp pp
    0.0000000000000000      6.3240914673492004      0.0000000000000004
    0.0000000000000000      6.6496114274480647      0.0000000000000004
    0.0000000000000000      6.6496114274480647      0.0000000000000004
ITEM: ATOMS id type x y z
1      1          1.5810247640647401     1.6624048517454444     1.6624048517454444
2      1          3.1620457336745997     0.0000000000000002     3.3248057137240323
3      1          1.5810247640647406     4.9872065757026203     4.9872065757026203
4      1          3.1620457336745997     3.3248057137240323     0.0000000000000000
5      1          4.7430667032844598     1.6624048517454446     4.9872065757026203
6      1          0.0000000000000000     0.0000000000000000     0.0000000000000000
7      1          4.7430667032844598     4.9872065757026203     1.6624048517454444
8      1          0.0000000000000004     3.3248057137240323     3.3248057137240323
ITEM: TIMESTEP energy, energy_weight, force_weight, nsims
12       -48116.3347537394511164    1    1   397
ITEM: NUMBER OF ATOMS
8         
ITEM: BOX BOUNDS xy xz yz pp pp pp
    0.0000000000000000      6.3326641387830005      0.0000000000000004
    0.0000000000000000      6.6496329769215050      0.0000000000000004
    0.0000000000000000      6.6496329769215050      0.0000000000000004
ITEM: ATOMS id type x y z
1      1          1.5831679344949916     1.6624102391202693     1.6624102391202693
2      1          3.1663320693914998     0.0000000000000002     3.3248164884607525
3      1          1.5831679344949920     4.9872227378012361     4.9872227378012361
4      1          3.1663320693914998     3.3248164884607525     0.0000000000000000
5      1          4.7494962042880084     1.6624102391202695     4.9872227378012361
6      1          0.0000000000000000     0.0000000000000000     0.0000000000000000
7      1          4.7494962042880084     4.9872227378012361     1.6624102391202693
8      1          0.0000000000000004     3.3248164884607525     3.3248164884607525
ITEM: TIMESTEP energy, energy_weight, force_weight, nsims
13       -48116.3416006709448993    1    1   397
ITEM: NUMBER OF ATOMS
8         
ITEM: BOX BOUNDS xy xz yz pp pp pp
    0.0000000000000000      6.3412368102168006      0.0000000000000004
    0.0000000000000000      6.6496618861921233      0.0000000000000004
    0.0000000000000000      6.6496618861921233      0.0000000000000004
ITEM: ATOMS id type x y z
1      1          1.5853111049252431     1.6624174664465967     1.6624174664465967
2      1          3.1706184051083999     0.0000000000000002     3.3248309430960616
3      1          1.5853111049252435     4.9872444197455268     4.9872444197455268
4      1          3.1706184051083999     3.3248309430960616     0.0000000000000000
5      1          4.7559257052915571     1.6624174664465969     4.9872444197455268
6      1          0.0000000000000000     0.0000000000000000     0.0000000000000000
7      1          4.7559257052915571     4.9872444197455268     1.6624174664465967
8      1          0.0000000000000004     3.3248309430960616     3.3248309430960616
ITEM: TIMESTEP energy, energy_weight, force_weight, nsims
14       -48116.3482452857133467    1    1   397
ITEM: NUMBER OF ATOMS
8         
ITEM: BOX BOUNDS xy xz yz pp pp pp
    0.0000000000000000      6.3497565639257001      0.0000000000000004
    0.0000000000000000      6.6496492166833461      0.0000000000000004
    0.0000000000000000      6.6496492166833461      0.0000000000000004
ITEM: ATOMS id type x y z
1      1          1.5874410459083941     1.6624142990656017     1.6624142990656017
2      1          3.1748782819628496     0.0000000000000002     3.3248246083416730
3      1          1.5874410459083945     4.9872349176177453     4.9872349176177453
4      1          3.1748782819628496     3.3248246083416730     0.0000000000000000
5      1          4.7623155180173056     1.6624142990656019     4.9872349176177453
6      1          0.0000000000000000     0.0000000000000000     0.0000000000000000
7      1          4.7623155180173056     4.9872349176177453     1.6624142990656017
8      1          0.0000000000000004     3.3248246083416730     3.3248246083416730
ITEM: TIMESTEP energy, energy_weight, force_weight, nsims
15       -48116.3546859510606737    1    1   397
ITEM: NUMBER OF ATOMS
8         
ITEM: BOX BOUNDS xy xz yz pp pp pp
    0.0000000000000000      6.3582763176346004      0.0000000000000004
    0.0000000000000000      6.6496443298902053      0.0000000000000004
    0.0000000000000000      6.6496443298902053      0.0000000000000004
ITEM: ATOMS id type x y z
1      1          1.5895709868915453     1.6624130773658503     1.6624130773658503
2      1          3.1791381588172998     0.0000000000000002     3.3248221649451026
3      1          1.5895709868915457     4.9872312525243556     4.9872312525243556
4      1          3.1791381588172998     3.3248221649451026     0.0000000000000000
5      1          4.7687053307430549     1.6624130773658505     4.9872312525243556
6      1          0.0000000000000000     0.0000000000000000     0.0000000000000000
7      1          4.7687053307430549     4.9872312525243556     1.6624130773658503
8      1          0.0000000000000004     3.3248221649451026     3.3248221649451026
ITEM: TIMESTEP energy, energy_weight, force_weight, nsims
16       -48116.3609290616805083    1    1   397
ITEM: NUMBER OF ATOMS
8         
ITEM: BOX BOUNDS xy xz yz pp pp pp
    0.0000000000000000      6.3667960713434999      0.0000000000000004
    0.0000000000000000      6.6496537204050767      0.0000000000000004
    0.0000000000000000      6.6496537204050767      0.0000000000000004
ITEM: ATOMS id type x y z
1      1          1.5917009278746963     1.6624154249973853     1.6624154249973853
2      1          3.1833980356717495     0.0000000000000002     3.3248268602025384
3      1          1.5917009278746967     4.9872382954076917     4.9872382954076917
4      1          3.1833980356717495     3.3248268602025384     0.0000000000000000
5      1          4.7750951434688034     1.6624154249973855     4.9872382954076917
6      1          0.0000000000000000     0.0000000000000000     0.0000000000000000
7      1          4.7750951434688034     4.9872382954076917     1.6624154249973853
8      1          0.0000000000000004     3.3248268602025384     3.3248268602025384
ITEM: TIMESTEP energy, energy_weight, force_weight, nsims
17       -48116.3669781550343032    1    1   397
ITEM: NUMBER OF ATOMS
8         
ITEM: BOX BOUNDS xy xz yz pp pp pp
    0.0000000000000000      6.3752629073275005      0.0000000000000004
    0.0000000000000000      6.6496223465443380      0.0000000000000004
    0.0000000000000000      6.6496223465443380      0.0000000000000004
ITEM: ATOMS id type x y z
1      1          1.5938176394107471     1.6624075815227886     1.6624075815227886
2      1          3.1876314536637498     0.0000000000000002     3.3248111732721690
3      1          1.5938176394107475     4.9872147650215499     4.9872147650215499
4      1          3.1876314536637498     3.3248111732721690     0.0000000000000000
5      1          4.7814452679167525     1.6624075815227888     4.9872147650215499
6      1          0.0000000000000000     0.0000000000000000     0.0000000000000000
7      1          4.7814452679167525     4.9872147650215499     1.6624075815227886
8      1          0.0000000000000004     3.3248111732721690     3.3248111732721690
ITEM: TIMESTEP energy, energy_weight, force_weight, nsims
18       -48116.3728305100084981    1    1   397
ITEM: NUMBER OF ATOMS
8         
ITEM: BOX BOUNDS xy xz yz pp pp pp
    0.0000000000000000      6.3837826610363999      0.0000000000000004
    0.0000000000000000      6.6496544413032428      0.0000000000000004
    0.0000000000000000      6.6496544413032428      0.0000000000000004
ITEM: ATOMS id type x y z
1      1          1.5959475803938981     1.6624156052221430     1.6624156052221430
2      1          3.1918913305181995     0.0000000000000002     3.3248272206516214
3      1          1.5959475803938985     4.9872388360811000     4.9872388360811000
4      1          3.1918913305181995     3.3248272206516214     0.0000000000000000
5      1          4.7878350806425010     1.6624156052221433     4.9872388360811000
6      1          0.0000000000000000     0.0000000000000000     0.0000000000000000
7      1          4.7878350806425010     4.9872388360811000     1.6624156052221430
8      1          0.0000000000000004     3.3248272206516214     3.3248272206516214
ITEM: TIMESTEP energy, energy_weight, force_weight, nsims
19       -48116.3784843578323489    1    1   397
ITEM: NUMBER OF ATOMS
8         
ITEM: BOX BOUNDS xy xz yz pp pp pp
    0.0000000000000000      6.3922494970203996      0.0000000000000004
    0.0000000000000000      6.6496462075169198      0.0000000000000004
    0.0000000000000000      6.6496462075169198      0.0000000000000004
ITEM: ATOMS id type x y z
1      1          1.5980642919299488     1.6624135467730923     1.6624135467730923
2      1          3.1961247485101993     0.0000000000000002     3.3248231037584599
3      1          1.5980642919299493     4.9872326607438282     4.9872326607438282
4      1          3.1961247485101993     3.3248231037584599     0.0000000000000000
5      1          4.7941852050904501     1.6624135467730925     4.9872326607438282
6      1          0.0000000000000000     0.0000000000000000     0.0000000000000000
7      1          4.7941852050904501     4.9872326607438282     1.6624135467730923
8      1          0.0000000000000004     3.3248231037584599     3.3248231037584599
ITEM: TIMESTEP energy, energy_weight, force_weight, nsims
20       -48116.3839426917838864    1    1   397
ITEM: NUMBER OF ATOMS
8         
ITEM: BOX BOUNDS xy xz yz pp pp pp
    0.0000000000000000      6.4007163330044001      0.0000000000000004
    0.0000000000000000      6.6496465919112726      0.0000000000000004
    0.0000000000000000      6.6496465919112726      0.0000000000000004
ITEM: ATOMS id type x y z
1      1          1.6001810034659998     1.6624136428717957     1.6624136428717957
2      1          3.2003581665021996     0.0000000000000002     3.3248232959556363
3      1          1.6001810034660002     4.9872329490394769     4.9872329490394769
4      1          3.2003581665021996     3.3248232959556363     0.0000000000000000
5      1          4.8005353295384001     1.6624136428717959     4.9872329490394769
6      1          0.0000000000000000     0.0000000000000000     0.0000000000000000
7      1          4.8005353295384001     4.9872329490394769     1.6624136428717957
8      1          0.0000000000000004     3.3248232959556363     3.3248232959556363
ITEM: TIMESTEP energy, energy_weight, force_weight, nsims
21       -48116.3892136752765509    1    1   397
ITEM: NUMBER OF ATOMS
8         
ITEM: BOX BOUNDS xy xz yz pp pp pp
    0.0000000000000000      6.4091831689883998      0.0000000000000004
    0.0000000000000000      6.6496621306720121      0.0000000000000004
    0.0000000000000000      6.6496621306720121      0.0000000000000004
ITEM: ATOMS id type x y z
1      1          1.6022977150020505     1.6624175275666422     1.6624175275666422
2      1          3.2045915844941995     0.0000000000000002     3.3248310653360060
3      1          1.6022977150020510     4.9872446031053705     4.9872446031053705
4      1          3.2045915844941995     3.3248310653360060     0.0000000000000000
5      1          4.8068854539863484     1.6624175275666424     4.9872446031053705
6      1          0.0000000000000000     0.0000000000000000     0.0000000000000000
7      1          4.8068854539863484     4.9872446031053705     1.6624175275666422
8      1          0.0000000000000004     3.3248310653360060     3.3248310653360060
ITEM: TIMESTEP energy, energy_weight, force_weight, nsims
22       -48116.3942943150468636    1    1   397
ITEM: NUMBER OF ATOMS
8         
ITEM: BOX BOUNDS xy xz yz pp pp pp
    0.0000000000000000      6.4175970872475006      0.0000000000000004
    0.0000000000000000      6.6496317275340200      0.0000000000000004
    0.0000000000000000      6.6496317275340200      0.0000000000000004
ITEM: ATOMS id type x y z
1      1          1.6044011970910010     1.6624099267730232     1.6624099267730232
2      1          3.2087985436237498     0.0000000000000002     3.3248158637670100
3      1          1.6044011970910015     4.9872218007609970     4.9872218007609970
4      1          3.2087985436237498     3.3248158637670100     0.0000000000000000
5      1          4.8131958901564991     1.6624099267730235     4.9872218007609970
6      1          0.0000000000000000     0.0000000000000000     0.0000000000000000
7      1          4.8131958901564991     4.9872218007609970     1.6624099267730232
8      1          0.0000000000000004     3.3248158637670100     3.3248158637670100
ITEM: TIMESTEP energy, energy_weight, force_weight, nsims
23       -48116.3991854274427169    1    1   397
ITEM: NUMBER OF ATOMS
8         
ITEM: BOX BOUNDS xy xz yz pp pp pp
    0.0000000000000000      6.4260110055066004      0.0000000000000004
    0.0000000000000000      6.6496169104652125      0.0000000000000004
    0.0000000000000000      6.6496169104652125      0.0000000000000004
ITEM: ATOMS id type x y z
1      1          1.6065046791799515     1.6624062225013763     1.6624062225013763
2      1          3.2130055027532998     0.0000000000000002     3.3248084552326063
3      1          1.6065046791799520     4.9872106879638363     4.9872106879638363
4      1          3.2130055027532998     3.3248084552326063     0.0000000000000000
5      1          4.8195063263266480     1.6624062225013765     4.9872106879638363
6      1          0.0000000000000000     0.0000000000000000     0.0000000000000000
7      1          4.8195063263266480     4.9872106879638363     1.6624062225013763
8      1          0.0000000000000004     3.3248084552326063     3.3248084552326063
ITEM: TIMESTEP energy, energy_weight, force_weight, nsims
24       -48116.4038870124641107    1    1   397
ITEM: NUMBER OF ATOMS
8         
ITEM: BOX BOUNDS xy xz yz pp pp pp
    0.0000000000000000      6.4344778414906001      0.0000000000000004
    0.0000000000000000      6.6496660839435684      0.0000000000000004
    0.0000000000000000      6.6496660839435684      0.0000000000000004
ITEM: ATOMS id type x y z
1      1          1.6086213907160023     1.6624185158857174     1.6624185158857174
2      1          3.2172389207452996     0.0000000000000002     3.3248330419717842
3      1          1.6086213907160027     4.9872475680578514     4.9872475680578514
4      1          3.2172389207452996     3.3248330419717842     0.0000000000000000
5      1          4.8258564507745971     1.6624185158857177     4.9872475680578514
6      1          0.0000000000000000     0.0000000000000000     0.0000000000000000
7      1          4.8258564507745971     4.9872475680578514     1.6624185158857174
8      1          0.0000000000000004     3.3248330419717842     3.3248330419717842
ITEM: TIMESTEP energy, energy_weight, force_weight, nsims
25       -48116.4084070974786300    1    1   397
ITEM: NUMBER OF ATOMS
8         
ITEM: BOX BOUNDS xy xz yz pp pp pp
    0.0000000000000000      6.4428388420248002      0.0000000000000004
    0.0000000000000000      6.6496153118207442      0.0000000000000004
    0.0000000000000000      6.6496153118207442      0.0000000000000004
ITEM: ATOMS id type x y z
1      1          1.6107116433578526     1.6624058228397796     1.6624058228397796
2      1          3.2214194210123996     0.0000000000000002     3.3248076559103721
3      1          1.6107116433578530     4.9872094889809651     4.9872094889809651
4      1          3.2214194210123996     3.3248076559103721     0.0000000000000000
5      1          4.8321271986669467     1.6624058228397798     4.9872094889809651
6      1          0.0000000000000000     0.0000000000000000     0.0000000000000000
7      1          4.8321271986669467     4.9872094889809651     1.6624058228397796
8      1          0.0000000000000004     3.3248076559103721     3.3248076559103721
ITEM: TIMESTEP energy, energy_weight, force_weight, nsims
26       -48116.4127361584833125    1    1   397
ITEM: NUMBER OF ATOMS
8         
ITEM: BOX BOUNDS xy xz yz pp pp pp
    0.0000000000000000      6.4512527602839009      0.0000000000000004
    0.0000000000000000      6.6496287826626297      0.0000000000000004
    0.0000000000000000      6.6496287826626297      0.0000000000000004
ITEM: ATOMS id type x y z
1      1          1.6128151254468031     1.6624091905542924     1.6624091905542924
2      1          3.2256263801419500     0.0000000000000002     3.3248143913313148
3      1          1.6128151254468035     4.9872195921083380     4.9872195921083380
4      1          3.2256263801419500     3.3248143913313148     0.0000000000000000
5      1          4.8384376348370974     1.6624091905542926     4.9872195921083380
6      1          0.0000000000000000     0.0000000000000000     0.0000000000000000
7      1          4.8384376348370974     4.9872195921083380     1.6624091905542924
8      1          0.0000000000000004     3.3248143913313148     3.3248143913313148
ITEM: TIMESTEP energy, energy_weight, force_weight, nsims
27       -48116.4168829031405039    1    1   397
ITEM: NUMBER OF ATOMS
8         
ITEM: BOX BOUNDS xy xz yz pp pp pp
    0.0000000000000000      6.4596666785430008      0.0000000000000004
    0.0000000000000000      6.6496583948923060      0.0000000000000004
    0.0000000000000000      6.6496583948923060      0.0000000000000004
ITEM: ATOMS id type x y z
1      1          1.6149186075357536     1.6624165936205950     1.6624165936205950
2      1          3.2298333392715000     0.0000000000000002     3.3248291974461530
3      1          1.6149186075357540     4.9872418012717112     4.9872418012717112
4      1          3.2298333392715000     3.3248291974461530     0.0000000000000000
5      1          4.8447480710072464     1.6624165936205952     4.9872418012717112
6      1          0.0000000000000000     0.0000000000000000     0.0000000000000000
7      1          4.8447480710072464     4.9872418012717112     1.6624165936205950
8      1          0.0000000000000004     3.3248291974461530     3.3248291974461530
ITEM: TIMESTEP energy, energy_weight, force_weight, nsims
28       -48116.4208473314429284    1    1   397
ITEM: NUMBER OF ATOMS
8         
ITEM: BOX BOUNDS xy xz yz pp pp pp
    0.0000000000000000      6.4680276790772000      0.0000000000000004
    0.0000000000000000      6.6496434282780079      0.0000000000000004
    0.0000000000000000      6.6496434282780079      0.0000000000000004
ITEM: ATOMS id type x y z
1      1          1.6170088601776036     1.6624128519625305     1.6624128519625305
2      1          3.2340138395385996     0.0000000000000002     3.3248217141390040
3      1          1.6170088601776040     4.9872305763154774     4.9872305763154774
4      1          3.2340138395385996     3.3248217141390040     0.0000000000000000
5      1          4.8510188188995960     1.6624128519625307     4.9872305763154774