ITEM: TIMESTEP energy, energy_weight, force_weight, nsims
1        -6009.1030025387162823    1    1   99
ITEM: NUMBER OF ATOMS
1         
ITEM: BOX BOUNDS xy xz yz pp pp pp
    0.0000000000000000      2.3924103427290002      0.0000000000000001
    0.0000000000000000      2.3924103427289998      0.0000000000000001
    0.0000000000000000      2.3924103427289998      0.0000000000000001
ITEM: ATOMS id type x y z
1      1          0.0000000000000000     0.0000000000000000     0.0000000000000000
ITEM: TIMESTEP energy, energy_weight, force_weight, nsims
2        -6009.4874674566117392    1    1   99
ITEM: NUMBER OF ATOMS
1         
ITEM: BOX BOUNDS xy xz yz pp pp pp
    0.0000000000000000      2.4086031665484002      0.0000000000000001
    0.0000000000000000      2.4086031665483998      0.0000000000000001
    0.0000000000000000      2.4086031665483998      0.0000000000000001
ITEM: ATOMS id type x y z
1      1          0.0000000000000000     0.0000000000000000     0.0000000000000000
ITEM: TIMESTEP energy, energy_weight, force_weight, nsims
3        -6009.8466800628384590    1    1   99
ITEM: NUMBER OF ATOMS
1         
ITEM: BOX BOUNDS xy xz yz pp pp pp
    0.0000000000000000      2.4247430726429000      0.0000000000000001
    0.0000000000000000      2.4247430726428996      0.0000000000000001
    0.0000000000000000      2.4247430726428996      0.0000000000000001
ITEM: ATOMS id type x y z
1      1          0.0000000000000000     0.0000000000000000     0.0000000000000000
ITEM: TIMESTEP energy, energy_weight, force_weight, nsims
4        -6010.1823228380217188    1    1   99
ITEM: NUMBER OF ATOMS
1         
ITEM: BOX BOUNDS xy xz yz pp pp pp
    0.0000000000000000      2.4407242255627004      0.0000000000000001
    0.0000000000000000      2.4407242255627000      0.0000000000000001
    0.0000000000000000      2.4407242255627000      0.0000000000000001
ITEM: ATOMS id type x y z
1      1          0.0000000000000000     0.0000000000000000     0.0000000000000000
ITEM: TIMESTEP energy, energy_weight, force_weight, nsims
5        -6010.4959642470339531    1    1   99
ITEM: NUMBER OF ATOMS
1         
ITEM: BOX BOUNDS xy xz yz pp pp pp
    0.0000000000000000      2.4565995430326999      0.0000000000000002
    0.0000000000000000      2.4565995430326995      0.0000000000000002
    0.0000000000000000      2.4565995430326995      0.0000000000000002
ITEM: ATOMS id type x y z
1      1          0.0000000000000000     0.0000000000000000     0.0000000000000000
ITEM: TIMESTEP energy, energy_weight, force_weight, nsims
6        -6010.7890308473160985    1    1   99
ITEM: NUMBER OF ATOMS
1         
ITEM: BOX BOUNDS xy xz yz pp pp pp
    0.0000000000000000      2.4724219427778005      0.0000000000000002
    0.0000000000000000      2.4724219427778000      0.0000000000000002
    0.0000000000000000      2.4724219427778000      0.0000000000000002
ITEM: ATOMS id type x y z
1      1          0.0000000000000000     0.0000000000000000     0.0000000000000000
ITEM: TIMESTEP energy, energy_weight, force_weight, nsims
7        -6011.0628777663969231    1    1   99
ITEM: NUMBER OF ATOMS
1         
ITEM: BOX BOUNDS xy xz yz pp pp pp
    0.0000000000000000      2.4881385070731006      0.0000000000000002
    0.0000000000000000      2.4881385070731001      0.0000000000000002
    0.0000000000000000      2.4881385070731001      0.0000000000000002
ITEM: ATOMS id type x y z
1      1          0.0000000000000000     0.0000000000000000     0.0000000000000000
ITEM: TIMESTEP energy, energy_weight, force_weight, nsims
8        -6011.3187356396656469    1    1   99
ITEM: NUMBER OF ATOMS
1         
ITEM: BOX BOUNDS xy xz yz pp pp pp
    0.0000000000000000      2.5036963181937004      0.0000000000000002
    0.0000000000000000      2.5036963181937000      0.0000000000000002
    0.0000000000000000      2.5036963181937000      0.0000000000000002
ITEM: ATOMS id type x y z
1      1          0.0000000000000000     0.0000000000000000     0.0000000000000000
ITEM: TIMESTEP energy, energy_weight, force_weight, nsims
9        -6011.5577682985358479    1    1   99
ITEM: NUMBER OF ATOMS
1         
ITEM: BOX BOUNDS xy xz yz pp pp pp
    0.0000000000000000      2.5192012115894005      0.0000000000000002
    0.0000000000000000      2.5192012115894000      0.0000000000000002
    0.0000000000000000      2.5192012115894000      0.0000000000000002
ITEM: ATOMS id type x y z
1      1          0.0000000000000000     0.0000000000000000     0.0000000000000000
ITEM: TIMESTEP energy, energy_weight, force_weight, nsims
10       -6011.7810372595686204    1    1   99
ITEM: NUMBER OF ATOMS
1         
ITEM: BOX BOUNDS xy xz yz pp pp pp
    0.0000000000000000      2.5346531872601998      0.0000000000000002
    0.0000000000000000      2.5346531872601994      0.0000000000000002
    0.0000000000000000      2.5346531872601994      0.0000000000000002
ITEM: ATOMS id type x y z
1      1          0.0000000000000000     0.0000000000000000     0.0000000000000000
ITEM: TIMESTEP energy, energy_weight, force_weight, nsims
11       -6011.9895508410500042    1    1   99
ITEM: NUMBER OF ATOMS
1         
ITEM: BOX BOUNDS xy xz yz pp pp pp
    0.0000000000000000      2.5499464097563003      0.0000000000000002
    0.0000000000000000      2.5499464097562998      0.0000000000000002
    0.0000000000000000      2.5499464097562998      0.0000000000000002
ITEM: ATOMS id type x y z
1      1          0.0000000000000000     0.0000000000000000     0.0000000000000000
ITEM: TIMESTEP energy, energy_weight, force_weight, nsims
12       -6012.1842286521105052    1    1   99
ITEM: NUMBER OF ATOMS
1         
ITEM: BOX BOUNDS xy xz yz pp pp pp
    0.0000000000000000      2.5651867145275005      0.0000000000000002
    0.0000000000000000      2.5651867145275000      0.0000000000000002
    0.0000000000000000      2.5651867145275000      0.0000000000000002
ITEM: ATOMS id type x y z
1      1          0.0000000000000000     0.0000000000000000     0.0000000000000000
ITEM: TIMESTEP energy, energy_weight, force_weight, nsims
13       -6012.3659530222712419    1    1   99
ITEM: NUMBER OF ATOMS
1         
ITEM: BOX BOUNDS xy xz yz pp pp pp
    0.0000000000000000      2.5803211838489002      0.0000000000000002
    0.0000000000000000      2.5803211838488997      0.0000000000000002
    0.0000000000000000      2.5803211838488997      0.0000000000000002
ITEM: ATOMS id type x y z
1      1          0.0000000000000000     0.0000000000000000     0.0000000000000000
ITEM: TIMESTEP energy, energy_weight, force_weight, nsims
14       -6012.5355255992608363    1    1   99
ITEM: NUMBER OF ATOMS
1         
ITEM: BOX BOUNDS xy xz yz pp pp pp
    0.0000000000000000      2.5953498177204999      0.0000000000000002
    0.0000000000000000      2.5953498177204994      0.0000000000000002
    0.0000000000000000      2.5953498177204994      0.0000000000000002
ITEM: ATOMS id type x y z
1      1          0.0000000000000000     0.0000000000000000     0.0000000000000000
ITEM: TIMESTEP energy, energy_weight, force_weight, nsims
15       -6012.6937029959490246    1    1   99
ITEM: NUMBER OF ATOMS
1         
ITEM: BOX BOUNDS xy xz yz pp pp pp
    0.0000000000000000      2.6103255338672002      0.0000000000000002
    0.0000000000000000      2.6103255338671998      0.0000000000000002
    0.0000000000000000      2.6103255338671998      0.0000000000000002
ITEM: ATOMS id type x y z
1      1          0.0000000000000000     0.0000000000000000     0.0000000000000000
ITEM: TIMESTEP energy, energy_weight, force_weight, nsims
16       -6012.8411967903448385    1    1   99
ITEM: NUMBER OF ATOMS
1         
ITEM: BOX BOUNDS xy xz yz pp pp pp
    0.0000000000000000      2.6251954145641001      0.0000000000000002
    0.0000000000000000      2.6251954145640997      0.0000000000000002
    0.0000000000000000      2.6251954145640997      0.0000000000000002
ITEM: ATOMS id type x y z
1      1          0.0000000000000000     0.0000000000000000     0.0000000000000000
ITEM: TIMESTEP energy, energy_weight, force_weight, nsims
17       -6012.9786611444123992    1    1   99
ITEM: NUMBER OF ATOMS
1         
ITEM: BOX BOUNDS xy xz yz pp pp pp
    0.0000000000000000      2.6399594598112004      0.0000000000000002
    0.0000000000000000      2.6399594598111999      0.0000000000000002
    0.0000000000000000      2.6399594598111999      0.0000000000000002
ITEM: ATOMS id type x y z
1      1          0.0000000000000000     0.0000000000000000     0.0000000000000000
ITEM: TIMESTEP energy, energy_weight, force_weight, nsims
18       -6013.1067042328531898    1    1   99
ITEM: NUMBER OF ATOMS
1         
ITEM: BOX BOUNDS xy xz yz pp pp pp
    0.0000000000000000      2.6546705873334004      0.0000000000000002
    0.0000000000000000      2.6546705873334000      0.0000000000000002
    0.0000000000000000      2.6546705873334000      0.0000000000000002
ITEM: ATOMS id type x y z
1      1          0.0000000000000000     0.0000000000000000     0.0000000000000000
ITEM: TIMESTEP energy, energy_weight, force_weight, nsims
19       -6013.2259098761733185    1    1   99
ITEM: NUMBER OF ATOMS
1         
ITEM: BOX BOUNDS xy xz yz pp pp pp
    0.0000000000000000      2.6693287971307003      0.0000000000000002
    0.0000000000000000      2.6693287971306998      0.0000000000000002
    0.0000000000000000      2.6693287971306998      0.0000000000000002
ITEM: ATOMS id type x y z
1      1          0.0000000000000000     0.0000000000000000     0.0000000000000000
ITEM: TIMESTEP energy, energy_weight, force_weight, nsims
20       -6013.3368077441964488    1    1   99
ITEM: NUMBER OF ATOMS
1         
ITEM: BOX BOUNDS xy xz yz pp pp pp
    0.0000000000000000      2.6838282537533003      0.0000000000000002
    0.0000000000000000      2.6838282537532998      0.0000000000000002
    0.0000000000000000      2.6838282537532998      0.0000000000000002
ITEM: ATOMS id type x y z
1      1          0.0000000000000000     0.0000000000000000     0.0000000000000000
ITEM: TIMESTEP energy, energy_weight, force_weight, nsims
21       -6013.4398974381565495    1    1   99
ITEM: NUMBER OF ATOMS
1         
ITEM: BOX BOUNDS xy xz yz pp pp pp
    0.0000000000000000      2.6983277103759002      0.0000000000000002
    0.0000000000000000      2.6983277103758998      0.0000000000000002
    0.0000000000000000      2.6983277103758998      0.0000000000000002
ITEM: ATOMS id type x y z
1      1          0.0000000000000000     0.0000000000000000     0.0000000000000000
ITEM: TIMESTEP energy, energy_weight, force_weight, nsims
22       -6013.5356604637090641    1    1   99
ITEM: NUMBER OF ATOMS
1         
ITEM: BOX BOUNDS xy xz yz pp pp pp
    0.0000000000000000      2.7127213315487002      0.0000000000000002
    0.0000000000000000      2.7127213315486998      0.0000000000000002
    0.0000000000000000      2.7127213315486998      0.0000000000000002
ITEM: ATOMS id type x y z
1      1          0.0000000000000000     0.0000000000000000     0.0000000000000000
ITEM: TIMESTEP energy, energy_weight, force_weight, nsims
23       -6013.6245425435208745    1    1   99
ITEM: NUMBER OF ATOMS
1         
ITEM: BOX BOUNDS xy xz yz pp pp pp
    0.0000000000000000      2.7270091172717001      0.0000000000000002
    0.0000000000000000      2.7270091172716997      0.0000000000000002
    0.0000000000000000      2.7270091172716997      0.0000000000000002
ITEM: ATOMS id type x y z
1      1          0.0000000000000000     0.0000000000000000     0.0000000000000000
ITEM: TIMESTEP energy, energy_weight, force_weight, nsims
24       -6013.7069446375153348    1    1   99
ITEM: NUMBER OF ATOMS
1         
ITEM: BOX BOUNDS xy xz yz pp pp pp
    0.0000000000000000      2.7412439852698003      0.0000000000000002
    0.0000000000000000      2.7412439852697998      0.0000000000000002
    0.0000000000000000      2.7412439852697998      0.0000000000000002
ITEM: ATOMS id type x y z
1      1          0.0000000000000000     0.0000000000000000     0.0000000000000000
ITEM: TIMESTEP energy, energy_weight, force_weight, nsims
25       -6013.7832741002912371    1    1   99
ITEM: NUMBER OF ATOMS
1         
ITEM: BOX BOUNDS xy xz yz pp pp pp
    0.0000000000000000      2.7554259355430002      0.0000000000000002
    0.0000000000000000      2.7554259355429997      0.0000000000000002
    0.0000000000000000      2.7554259355429997      0.0000000000000002
ITEM: ATOMS id type x y z
1      1          0.0000000000000000     0.0000000000000000     0.0000000000000000
ITEM: TIMESTEP energy, energy_weight, force_weight, nsims
26       -6013.8538808704051917    1    1   99
ITEM: NUMBER OF ATOMS
1         
ITEM: BOX BOUNDS xy xz yz pp pp pp
    0.0000000000000000      2.7695020503664001      0.0000000000000002
    0.0000000000000000      2.7695020503663996      0.0000000000000002
    0.0000000000000000      2.7695020503663996      0.0000000000000002
ITEM: ATOMS id type x y z
1      1          0.0000000000000000     0.0000000000000000     0.0000000000000000
ITEM: TIMESTEP energy, energy_weight, force_weight, nsims
27       -6013.9191136618956079    1    1   99
ITEM: NUMBER OF ATOMS
1         
ITEM: BOX BOUNDS xy xz yz pp pp pp
    0.0000000000000000      2.7835252474649006      0.0000000000000002
    0.0000000000000000      2.7835252474649002      0.0000000000000002
    0.0000000000000000      2.7835252474649002      0.0000000000000002
ITEM: ATOMS id type x y z
1      1          0.0000000000000000     0.0000000000000000     0.0000000000000000
ITEM: TIMESTEP energy, energy_weight, force_weight, nsims
28       -6013.9792966985496605    1    1   99
ITEM: NUMBER OF ATOMS
1         
ITEM: BOX BOUNDS xy xz yz pp pp pp
    0.0000000000000000      2.7974955268385004      0.0000000000000002
    0.0000000000000000      2.7974955268385000      0.0000000000000002
    0.0000000000000000      2.7974955268385000      0.0000000000000002
ITEM: ATOMS id type x y z
1      1          0.0000000000000000     0.0000000000000000     0.0000000000000000
ITEM: TIMESTEP energy, energy_weight, force_weight, nsims
29       -6014.0347235913304758    1    1   99
ITEM: NUMBER OF ATOMS
1         
ITEM: BOX BOUNDS xy xz yz pp pp pp
    0.0000000000000000      2.8114128884872005      0.0000000000000002
    0.0000000000000000      2.8114128884872001      0.0000000000000002
    0.0000000000000000      2.8114128884872001      0.0000000000000002
ITEM: ATOMS id type x y z
1      1          0.0000000000000000     0.0000000000000000     0.0000000000000000
ITEM: TIMESTEP energy, energy_weight, force_weight, nsims
30       -6014.0856799238408712    1    1   99
ITEM: NUMBER OF ATOMS
1         
ITEM: BOX BOUNDS xy xz yz pp pp pp
    0.0000000000000000      2.8252244146861001      0.0000000000000002
    0.0000000000000000      2.8252244146860996      0.0000000000000002
    0.0000000000000000      2.8252244146860996      0.0000000000000002
ITEM: ATOMS id type x y z
1      1          0.0000000000000000     0.0000000000000000     0.0000000000000000
ITEM: TIMESTEP energy, energy_weight, force_weight, nsims
31       -6014.1324465176885496    1    1   99
ITEM: NUMBER OF ATOMS
1         
ITEM: BOX BOUNDS xy xz yz pp pp pp
    0.0000000000000000      2.8389301054352001      0.0000000000000002
    0.0000000000000000      2.8389301054351996      0.0000000000000002
    0.0000000000000000      2.8389301054351996      0.0000000000000002
ITEM: ATOMS id type x y z
1      1          0.0000000000000000     0.0000000000000000     0.0000000000000000
ITEM: TIMESTEP energy, energy_weight, force_weight, nsims
32       -6014.1752470505498422    1    1   99
ITEM: NUMBER OF ATOMS
1         
ITEM: BOX BOUNDS xy xz yz pp pp pp
    0.0000000000000000      2.8526357961843001      0.0000000000000002
    0.0000000000000000      2.8526357961842996      0.0000000000000002
    0.0000000000000000      2.8526357961842996      0.0000000000000002
ITEM: ATOMS id type x y z
1      1          0.0000000000000000     0.0000000000000000     0.0000000000000000
ITEM: TIMESTEP energy, energy_weight, force_weight, nsims
33       -6014.2143358129223998    1    1   99
ITEM: NUMBER OF ATOMS
1         
ITEM: BOX BOUNDS xy xz yz pp pp pp
    0.0000000000000000      2.8662356514836005      0.0000000000000002
    0.0000000000000000      2.8662356514836000      0.0000000000000002
    0.0000000000000000      2.8662356514836000      0.0000000000000002
ITEM: ATOMS id type x y z
1      1          0.0000000000000000     0.0000000000000000     0.0000000000000000
ITEM: TIMESTEP energy, energy_weight, force_weight, nsims
34       -6014.2499241012965285    1    1   99
ITEM: NUMBER OF ATOMS
1         
ITEM: BOX BOUNDS xy xz yz pp pp pp
    0.0000000000000000      2.8797825890580002      0.0000000000000002
    0.0000000000000000      2.8797825890579998      0.0000000000000002
    0.0000000000000000      2.8797825890579998      0.0000000000000002
ITEM: ATOMS id type x y z
1      1          0.0000000000000000     0.0000000000000000     0.0000000000000000
ITEM: TIMESTEP energy, energy_weight, force_weight, nsims
35       -6014.2822189943972262    1    1   99
ITEM: NUMBER OF ATOMS
1         
ITEM: BOX BOUNDS xy xz yz pp pp pp
    0.0000000000000000      2.8932766089075002      0.0000000000000002
    0.0000000000000000      2.8932766089074997      0.0000000000000002
    0.0000000000000000      2.8932766089074997      0.0000000000000002
ITEM: ATOMS id type x y z
1      1          0.0000000000000000     0.0000000000000000     0.0000000000000000
ITEM: TIMESTEP energy, energy_weight, force_weight, nsims
36       -6014.3114135570785947    1    1   99
ITEM: NUMBER OF ATOMS
1         
ITEM: BOX BOUNDS xy xz yz pp pp pp
    0.0000000000000000      2.9067177110320999      0.0000000000000002
    0.0000000000000000      2.9067177110320994      0.0000000000000002
    0.0000000000000000      2.9067177110320994      0.0000000000000002
ITEM: ATOMS id type x y z
1      1          0.0000000000000000     0.0000000000000000     0.0000000000000000
ITEM: TIMESTEP energy, energy_weight, force_weight, nsims
37       -6014.3376842552461312    1    1   99
ITEM: NUMBER OF ATOMS
1         
ITEM: BOX BOUNDS xy xz yz pp pp pp
    0.0000000000000000      2.9201058954318002      0.0000000000000002
    0.0000000000000000      2.9201058954317998      0.0000000000000002
    0.0000000000000000      2.9201058954317998      0.0000000000000002
ITEM: ATOMS id type x y z
1      1          0.0000000000000000     0.0000000000000000     0.0000000000000000
ITEM: TIMESTEP energy, energy_weight, force_weight, nsims
38       -6014.3612155821656415    1    1   99
ITEM: NUMBER OF ATOMS
1         
ITEM: BOX BOUNDS xy xz yz pp pp pp
    0.0000000000000000      2.9333882443817005      0.0000000000000002
    0.0000000000000000      2.9333882443817001      0.0000000000000002
    0.0000000000000000      2.9333882443817001      0.0000000000000002
ITEM: ATOMS id type x y z
1      1          0.0000000000000000     0.0000000000000000     0.0000000000000000
ITEM: TIMESTEP energy, energy_weight, force_weight, nsims
39       -6014.3821521664067404    1    1   99
ITEM: NUMBER OF ATOMS
1         
ITEM: BOX BOUNDS xy xz yz pp pp pp
    0.0000000000000000      2.9466176756067002      0.0000000000000002
    0.0000000000000000      2.9466176756066997      0.0000000000000002
    0.0000000000000000      2.9466176756066997      0.0000000000000002
ITEM: ATOMS id type x y z
1      1          0.0000000000000000     0.0000000000000000     0.0000000000000000
ITEM: TIMESTEP energy, energy_weight, force_weight, nsims
40       -6014.4006605417125684    1    1   99
ITEM: NUMBER OF ATOMS
1         
ITEM: BOX BOUNDS xy xz yz pp pp pp
    0.0000000000000000      2.9597941891068005      0.0000000000000002
    0.0000000000000000      2.9597941891068000      0.0000000000000002
    0.0000000000000000      2.9597941891068000      0.0000000000000002
ITEM: ATOMS id type x y z
1      1          0.0000000000000000     0.0000000000000000     0.0000000000000000
ITEM: TIMESTEP energy, energy_weight, force_weight, nsims
41       -6014.4168691458762623    1    1   99
ITEM: NUMBER OF ATOMS
1         
ITEM: BOX BOUNDS xy xz yz pp pp pp
    0.0000000000000000      2.9729177848820005      0.0000000000000002
    0.0000000000000000      2.9729177848820001      0.0000000000000002
    0.0000000000000000      2.9729177848820001      0.0000000000000002
ITEM: ATOMS id type x y z
1      1          0.0000000000000000     0.0000000000000000     0.0000000000000000
ITEM: TIMESTEP energy, energy_weight, force_weight, nsims
42       -6014.4309178454705034    1    1   99
ITEM: NUMBER OF ATOMS
1         
ITEM: BOX BOUNDS xy xz yz pp pp pp
    0.0000000000000000      2.9859884629322999      0.0000000000000002
    0.0000000000000000      2.9859884629322995      0.0000000000000002
    0.0000000000000000      2.9859884629322995      0.0000000000000002
ITEM: ATOMS id type x y z
1      1          0.0000000000000000     0.0000000000000000     0.0000000000000000
ITEM: TIMESTEP energy, energy_weight, force_weight, nsims
43       -6014.4429289557238008    1    1   99
ITEM: NUMBER OF ATOMS
1         
ITEM: BOX BOUNDS xy xz yz pp pp pp
    0.0000000000000000      2.9990062232577004      0.0000000000000002
    0.0000000000000000      2.9990062232576999      0.0000000000000002
    0.0000000000000000      2.9990062232576999      0.0000000000000002
ITEM: ATOMS id type x y z
1      1          0.0000000000000000     0.0000000000000000     0.0000000000000000
ITEM: TIMESTEP energy, energy_weight, force_weight, nsims
44       -6014.4530208462065275    1    1   99
ITEM: NUMBER OF ATOMS
1         
ITEM: BOX BOUNDS xy xz yz pp pp pp
    0.0000000000000000      3.0119710658582002      0.0000000000000002
    0.0000000000000000      3.0119710658581997      0.0000000000000002
    0.0000000000000000      3.0119710658581997      0.0000000000000002
ITEM: ATOMS id type x y z
1      1          0.0000000000000000     0.0000000000000000     0.0000000000000000
ITEM: TIMESTEP energy, energy_weight, force_weight, nsims
45       -6014.4612978726254369    1    1   99
ITEM: NUMBER OF ATOMS
1         
ITEM: BOX BOUNDS xy xz yz pp pp pp
    0.0000000000000000      3.0248829907338002      0.0000000000000002
    0.0000000000000000      3.0248829907337997      0.0000000000000002
    0.0000000000000000      3.0248829907337997      0.0000000000000002
ITEM: ATOMS id type x y z
1      1          0.0000000000000000     0.0000000000000000     0.0000000000000000
ITEM: TIMESTEP energy, energy_weight, force_weight, nsims
46       -6014.4678714656456577    1    1   99
ITEM: NUMBER OF ATOMS
1         
ITEM: BOX BOUNDS xy xz yz pp pp pp
    0.0000000000000000      3.0376890801596002      0.0000000000000002
    0.0000000000000000      3.0376890801595997      0.0000000000000002
    0.0000000000000000      3.0376890801595997      0.0000000000000002
ITEM: ATOMS id type x y z
1      1          0.0000000000000000     0.0000000000000000     0.0000000000000000
ITEM: TIMESTEP energy, energy_weight, force_weight, nsims
47       -6014.4728363209269446    1    1   99
ITEM: NUMBER OF ATOMS
1         
ITEM: BOX BOUNDS xy xz yz pp pp pp
    0.0000000000000000      3.0504951695854001      0.0000000000000002
    0.0000000000000000      3.0504951695853997      0.0000000000000002
    0.0000000000000000      3.0504951695853997      0.0000000000000002
ITEM: ATOMS id type x y z
1      1          0.0000000000000000     0.0000000000000000     0.0000000000000000
ITEM: TIMESTEP energy, energy_weight, force_weight, nsims
48       -6014.4762829163610149    1    1   99
ITEM: NUMBER OF ATOMS
1         
ITEM: BOX BOUNDS xy xz yz pp pp pp
    0.0000000000000000      3.0632483412863003      0.0000000000000002
    0.0000000000000000      3.0632483412862999      0.0000000000000002
    0.0000000000000000      3.0632483412862999      0.0000000000000002
ITEM: ATOMS id type x y z
1      1          0.0000000000000000     0.0000000000000000     0.0000000000000000
ITEM: TIMESTEP energy, energy_weight, force_weight, nsims
49       -6014.4783067639482397    1    1   99
ITEM: NUMBER OF ATOMS
1         
ITEM: BOX BOUNDS xy xz yz pp pp pp
    0.0000000000000000      3.0759485952623002      0.0000000000000002
    0.0000000000000000      3.0759485952622998      0.0000000000000002
    0.0000000000000000      3.0759485952622998      0.0000000000000002
ITEM: ATOMS id type x y z
1      1          0.0000000000000000     0.0000000000000000     0.0000000000000000
ITEM: TIMESTEP energy, energy_weight, force_weight, nsims
50       -6014.4789723546982714    1    1   99
ITEM: NUMBER OF ATOMS
1         
ITEM: BOX BOUNDS xy xz yz pp pp pp
    0.0000000000000000      3.0885430137885002      0.0000000000000002
    0.0000000000000000      3.0885430137884997      0.0000000000000002
    0.0000000000000000      3.0885430137884997      0.0000000000000002
ITEM: ATOMS id type x y z
1      1          0.0000000000000000     0.0000000000000000     0.0000000000000000
ITEM: TIMESTEP energy, energy_weight, force_weight, nsims
51       -6014.4783781938631364    1    1   99
ITEM: NUMBER OF ATOMS
1         
ITEM: BOX BOUNDS xy xz yz pp pp pp
    0.0000000000000000      3.1011374323147001      0.0000000000000002
    0.0000000000000000      3.1011374323146996      0.0000000000000002
    0.0000000000000000      3.1011374323146996      0.0000000000000002
ITEM: ATOMS id type x y z
1      1          0.0000000000000000     0.0000000000000000     0.0000000000000000
ITEM: TIMESTEP energy, energy_weight, force_weight, nsims
52       -6014.4765864594846789    1    1   99
ITEM: NUMBER OF ATOMS
1         
ITEM: BOX BOUNDS xy xz yz pp pp pp
    0.0000000000000000      3.1136789331160002      0.0000000000000002
    0.0000000000000000      3.1136789331159997      0.0000000000000002
    0.0000000000000000      3.1136789331159997      0.0000000000000002
ITEM: ATOMS id type x y z
1      1          0.0000000000000000     0.0000000000000000     0.0000000000000000
ITEM: TIMESTEP energy, energy_weight, force_weight, nsims
53       -6014.4736631391979245    1    1   99
ITEM: NUMBER OF ATOMS
1         
ITEM: BOX BOUNDS xy xz yz pp pp pp
    0.0000000000000000      3.1261675161924005      0.0000000000000002
    0.0000000000000000      3.1261675161924001      0.0000000000000002
    0.0000000000000000      3.1261675161924001      0.0000000000000002
ITEM: ATOMS id type x y z
1      1          0.0000000000000000     0.0000000000000000     0.0000000000000000
ITEM: TIMESTEP energy, energy_weight, force_weight, nsims
54       -6014.4696685062463075    1    1   99
ITEM: NUMBER OF ATOMS
1         
ITEM: BOX BOUNDS xy xz yz pp pp pp
    0.0000000000000000      3.1386031815439002      0.0000000000000002
    0.0000000000000000      3.1386031815438997      0.0000000000000002
    0.0000000000000000      3.1386031815438997      0.0000000000000002
ITEM: ATOMS id type x y z
1      1          0.0000000000000000     0.0000000000000000     0.0000000000000000
ITEM: TIMESTEP energy, energy_weight, force_weight, nsims
55       -6014.4646825621330208    1    1   99
ITEM: NUMBER OF ATOMS
1         
ITEM: BOX BOUNDS xy xz yz pp pp pp
    0.0000000000000000      3.1509330114456002      0.0000000000000002
    0.0000000000000000      3.1509330114455998      0.0000000000000002
    0.0000000000000000      3.1509330114455998      0.0000000000000002
ITEM: ATOMS id type x y z
1      1          0.0000000000000000     0.0000000000000000     0.0000000000000000
ITEM: TIMESTEP energy, energy_weight, force_weight, nsims
56       -6014.4587497974916914    1    1   99
ITEM: NUMBER OF ATOMS
1         
ITEM: BOX BOUNDS xy xz yz pp pp pp
    0.0000000000000000      3.1633157590722005      0.0000000000000002
    0.0000000000000000      3.1633157590722001      0.0000000000000002
    0.0000000000000000      3.1633157590722001      0.0000000000000002
ITEM: ATOMS id type x y z
1      1          0.0000000000000000     0.0000000000000000     0.0000000000000000
ITEM: TIMESTEP energy, energy_weight, force_weight, nsims
57       -6014.4519178322643711    1    1   99
ITEM: NUMBER OF ATOMS
1         
ITEM: BOX BOUNDS xy xz yz pp pp pp
    0.0000000000000000      3.1755926712490004      0.0000000000000002
    0.0000000000000000      3.1755926712489999      0.0000000000000002
    0.0000000000000000      3.1755926712489999      0.0000000000000002
ITEM: ATOMS id type x y z
1      1          0.0000000000000000     0.0000000000000000     0.0000000000000000
ITEM: TIMESTEP energy, energy_weight, force_weight, nsims
58       -6014.4442604093355840    1    1   99
ITEM: NUMBER OF ATOMS
1         
ITEM: BOX BOUNDS xy xz yz pp pp pp
    0.0000000000000000      3.1878166657008999      0.0000000000000002
    0.0000000000000000      3.1878166657008995      0.0000000000000002
    0.0000000000000000      3.1878166657008995      0.0000000000000002
ITEM: ATOMS id type x y z
1      1          0.0000000000000000     0.0000000000000000     0.0000000000000000
ITEM: TIMESTEP energy, energy_weight, force_weight, nsims
59       -6014.4358084136401885    1    1   99
ITEM: NUMBER OF ATOMS
1         
ITEM: BOX BOUNDS xy xz yz pp pp pp
    0.0000000000000000      3.1999877424279002      0.0000000000000002
    0.0000000000000000      3.1999877424278997      0.0000000000000002
    0.0000000000000000      3.1999877424278997      0.0000000000000002
ITEM: ATOMS id type x y z
1      1          0.0000000000000000     0.0000000000000000     0.0000000000000000
ITEM: TIMESTEP energy, energy_weight, force_weight, nsims
60       -6014.4266170843120562    1    1   99
ITEM: NUMBER OF ATOMS
1         
ITEM: BOX BOUNDS xy xz yz pp pp pp
    0.0000000000000000      3.2121588191549004      0.0000000000000002
    0.0000000000000000      3.2121588191549000      0.0000000000000002
    0.0000000000000000      3.2121588191549000      0.0000000000000002
ITEM: ATOMS id type x y z
1      1          0.0000000000000000     0.0000000000000000     0.0000000000000000
ITEM: TIMESTEP energy, energy_weight, force_weight, nsims
61       -6014.4167253336472641    1    1   99
ITEM: NUMBER OF ATOMS
1         
ITEM: BOX BOUNDS xy xz yz pp pp pp
    0.0000000000000000      3.2242240604321002      0.0000000000000002