ITEM: TIMESTEP energy, energy_weight, force_weight, nsims
1        -414996.9685820524464361    1    1   400
ITEM: NUMBER OF ATOMS
69        
ITEM: BOX BOUNDS xy xz yz pp pp pp
   -0.9397228666656667     11.5817849425135986     -0.6062948599556425
   -0.3452761727062156     17.3620916623329364     -0.3334280067100243
    0.0000000000000000      9.5418851605886790     -0.3452761727062156
ITEM: ATOMS id type x y z
1      1          2.7122228972594580     2.8483521891387098     1.6151758932801992
2      1         -0.1666049697654360     2.7622699238484376     2.3416368239079413
3      1          2.7213646042817632    -0.1906223654701852     3.9760100359427288
4      1          2.6215064637079810     2.7805640727437524     4.7720761562514173
5      1         -0.2588983792091200     2.7399949975634934     5.5554849658945855
6      1         -0.2464891424551272    -0.2712805082441624     6.3868875495184820
7      1          2.6849516285797064    -0.1951447610994768     7.1330543813798721
8      1          2.5173174602738855     2.6083101762512229     7.9652928341438365
9      1         -0.3824535591084788     2.5104117143950555     8.7444726802838311
10     1         -0.2482049371085813     5.7455737363348183    -0.0073682437210066
11     1          2.6873646331487531     5.8325141104491092     0.8225200427279047
12     1          2.5531516010879778     8.6704697033699922     1.6105557124854419
13     1         -0.4221051823293566     8.5091702038727774     2.3845504982291730
14     1         -0.2828471779705574     5.7471384089443660     3.1460797651991110
15     1          2.5374918548784238     5.5640950618524903     3.9368558643747691
16     1          2.4103611857270546     8.4805917796373436     4.7777602572415798
17     1         -0.4491539020857039     8.5638038878413827     5.5282571965888456
18     1         -0.3795619484971164     5.5727802094168055     6.3815202391156500
19     1          2.4697997263516411     5.5477380411982722     7.1994277345569273
20     1          2.3366027782005458     8.4145048888743847     7.9190738508029765
21     1         -0.6069285658892941     8.4428312522684266     8.7536529279968338
22     1         -0.3889298191897123    11.5030801258620894    -0.0383345236326650
23     1          2.4490134128430299    11.5863709438534350     0.7980804122660889
24     1          2.3086582627792058    14.4321914201319288     1.6198027533945685
25     1         -0.5301525831928641    14.3518895371719992     2.3856411357030285
26     1         -0.4753784404150891    11.4559269685942837     3.1833370099971456
27     1          2.3609188068446825    11.5012876031087448     4.0083589350141571
28     1          2.2273670414186495    14.3664205249107759     4.7990691951822066
29     1         -0.7323882715726756    14.2121093373913485     5.5717185751182940
30     1         -0.6194682358123539    11.2857715076979819     6.3186582996776925
31     1          2.2375239970433487    11.3347691860513127     7.1161957786781436
32     1          2.1085941146680782    14.1054119745444932     7.9876217996081298
33     1         -0.8445359037094463    14.1543941079812701     8.7309384703720525
34     1          5.8072311026505377     0.0795852532389496     0.0325063401765774
35     1          8.7111339263660863    -0.0074901606773639     0.7879488386025758
36     1          8.5748324793365889     2.8815482055033019     1.5791505058563964
37     1          5.6240715379535064     2.8010934251971435     2.3481587024152035
38     1          5.6381324669690311    -0.0926609374565827     3.1530587000055657
39     1          8.5846082033271713    -0.0755410922635093     4.0047473314808739
40     1          8.4179515946181347     2.7292457632090446     4.8059832451695685
41     1          5.4547378906774133     2.7570423444403542     5.6040073603132114
42     1          5.5969350071872865    -0.2134373046829589     6.3555653572903328
43     1          8.3956455633476352    -0.2630602286474499     7.1794088594900112
44     1          8.2624682203058519     2.6450215867503317     7.9941016938206859
45     1          5.3314297073172012     2.5076956458207866     8.7653140658515891
46     1          5.5691426530214114     5.7357182528024744     0.0386665812362535
47     1          8.4683317833053078     5.7323075001806183     0.7594128768413194
48     1          8.3661050216517339     8.6505254381732559     1.5801476328556781
49     1          5.3526032492904401     8.5587933762387589     2.4153383448883288
50     1          5.4429819433084470     5.7323958946518605     3.1360617399690085
51     1          8.3665592727615419     5.6157419809799078     3.9320124034672541
52     1          8.2289506115713724     8.5211587583199542     4.7356204298068727
53     1          5.3181238400495694     8.4294106661735828     5.6093031065773378
54     1          5.3428644838063875     5.6006852563179175     6.3909533467854081
55     1          8.2704547834260236     5.5457037022227622     7.1221165184202890
56     1          8.1197533895555036     8.4079133608758294     7.9320050135726063
57     1          5.1590883864622672     8.2782964004705732     8.7615564714753500
58     1          5.3511728099969016    11.5348027081902433     0.0147240829913044
59     1          8.2588705803307398    11.6119413291695732     0.8305295011317029
60     1          8.1659499232647637    14.3662255946935176     1.6370840616089106
61     1          5.2029955521550946    14.3479000963431691     2.4270386044722421
62     1          5.2546833921921596    11.3901453843052227     3.1609803730658865
63     1          8.1443706118485153    11.3933738818824359     3.9511076240506244
64     1          7.9989855922199347    14.3440235734029482     4.7620237802347374
65     1          5.1141242256209063    14.2811441388681093     5.5616041768480704
66     1          5.1850264388005183    11.3195943405320723     6.3592094032331623
67     1          7.9857530313748200    11.3191741074641623     7.1664443001223201
68     1          7.8519880988722806    14.1680866403859334     7.9929204084378052
69     1          5.0354188180898971    14.1575034245926634     8.7724485333861608
ITEM: TIMESTEP energy, energy_weight, force_weight, nsims
2        -414997.1908105857437477    1    1   400
ITEM: NUMBER OF ATOMS
69        
ITEM: BOX BOUNDS xy xz yz pp pp pp
   -0.7517736606185561     11.5817849425135986     -0.4850335716075264
   -0.2742914127935491     17.3659020695790325     -0.2667400890110296
    0.0000000000000000      9.5462862388668341     -0.2742914127935491
ITEM: ATOMS id type x y z
1      1          2.7248696219928656     2.8573635080972117     1.5628206109076415
2      1         -0.1442425073353320     2.9077927628101392     2.3943909227749645
3      1          2.7426581642920111    -0.0419445147637461     3.9649631181085661
4      1          2.6535906209918831     2.8277661837577006     4.7799668048369588
5      1         -0.2614084152056995     2.7858417531386328     5.5729796665854980
6      1         -0.1562729394854148    -0.1511373690128661     6.3538716086965481
7      1          2.6747510832025370    -0.2769172049005334     7.1776111019621291
8      1          2.5529725895048352     2.6900952660503812     7.9417636311533268
9      1         -0.3517098411497309     2.5761960008002509     8.7599233201122892
10     1         -0.1835689550414927     5.7251402349617759     0.0476865636490115
11     1          2.7181741207819106     5.7926776563170206     0.7776834353061671
12     1          2.6234837949571541     8.7044574518423090     1.5853670297465974
13     1         -0.2976999777393547     8.6721596336392270     2.3832513613628308
14     1         -0.3072259097590574     5.6843900750275971     3.2193981628530661
15     1          2.5805937689162475     5.6582858994601031     4.0104798108954833
16     1          2.5355032262616763     8.4604679245916898     4.7786904663668226
17     1         -0.4080567820834179     8.4779950481733675     5.6119772004998936
18     1         -0.3279697369419639     5.5491926668502849     6.4054100988429434
19     1          2.5332237907689530     5.5490480092827212     7.1281011976414943
20     1          2.4198430700400868     8.3802632149940699     7.9989077005791831
21     1         -0.5230174757438270     8.3650323864920839     8.7648272473531943
22     1         -0.3381341453526210    11.5569260632491293    -0.0048905624401715
23     1          2.5513696680065037    11.5681431165462847     0.7716797758905438
24     1          2.3924893461766592    14.4870863584064651     1.5443685942365359
25     1         -0.4822400951821936    14.4307889412037245     2.3943489191155134
26     1         -0.3984378735152184    11.4456566121587660     3.2288260751425710
27     1          2.4656589698824196    11.5012548525878220     3.9761733220388669
28     1          2.3939712626984924    14.2495038675802199     4.8065665768129371
29     1         -0.5912130572697724    14.2640952457175718     5.5359897166671370
30     1         -0.5345802211954997    11.4629008838574684     6.3568051824577525
31     1          2.3277304793213549    11.3919366367429244     7.1664581757492609
32     1          2.2975007563456429    14.2574587083663182     8.0010432048108182
33     1         -0.6380244829249853    14.2468220469590197     8.7200914407806174
34     1          5.7640678780204775    -0.0030650051087224    -0.0041125401117038
35     1          8.6574027924552137    -0.0441784977001341     0.7705284937701364
36     1          8.5503301330286643     2.8011188710017638     1.6218682098095285
37     1          5.6134603827197216     2.8586212040746148     2.4129460393374500
38     1          5.6508219552636483    -0.0473974486691336     3.1966598636607095
39     1          8.5981472733485358    -0.1295732963301544     3.9979178528337584
40     1          8.4188657268221654     2.7142044352978343     4.7856191609189924
41     1          5.5289120313800817     2.6554256028699550     5.5850662195925276
42     1          5.5841281052099463    -0.1180788606827059     6.3219325988271731
43     1          8.4304373095046703    -0.1628404992510467     7.1453331989312732
44     1          8.4094975766819466     2.6767274257529490     7.9688254433832659
45     1          5.4440389173271750     2.6681115555826587     8.7109823744514898
46     1          5.6268143621871012     5.7928043128420610     0.0160310784809291
47     1          8.5552699285641562     5.7547915836802739     0.8020016448710566
48     1          8.3975423384378711     8.6830039618800843     1.5583386295184938
49     1          5.5250043903958419     8.6136822170208625     2.3502937627517668
50     1          5.4850164301354241     5.7545494193617728     3.2275191885564700
51     1          8.4510427638864343     5.6621417719781686     3.9886388626095797
52     1          8.3403029998723515     8.4817130710221402     4.7482998641253902
53     1          5.3489226277047779     8.5936599935788465     5.5487196893666662
54     1          5.4975885012067636     5.5817525342577303     6.3239191809934807
55     1          8.2807771472066705     5.5496136450728661     7.1242502257727347
56     1          8.1831563579472757     8.5097349746170927     7.9723652063206378
57     1          5.3291683552517117     8.4701001280738168     8.7757472441818347
58     1          5.4319880308693005    11.4903187340546804     0.0383378855352892
59     1          8.3925065924607463    11.5981865145084093     0.8257594874337244
60     1          8.2145282430919231    14.4843692585414221     1.5550432515088368
61     1          5.3068651070563355    14.4425514198191820     2.3544397148653067
62     1          5.3841799598444906    11.4470768173968231     3.2162660263380940
63     1          8.2367996509915873    11.5147823469371087     3.9399890786790666
64     1          8.1985778273733132    14.4114156543587111     4.7827256815599917
65     1          5.2845939599055018    14.3541311903608957     5.5253284241955702
66     1          5.2837421410550736    11.4249463798760864     6.3802413151741710
67     1          8.2173554055116949    11.4238263300760128     7.1906704215368995
68     1          8.0860158463778582    14.1827085244051183     7.9918701783638904
69     1          5.1511411567874443    14.2489628609607220     8.7819952885251737
ITEM: TIMESTEP energy, energy_weight, force_weight, nsims
3        -414997.2440515870694071    1    1   400
ITEM: NUMBER OF ATOMS
69        
ITEM: BOX BOUNDS xy xz yz pp pp pp
   -0.5638360363563886     11.5817849425135986     -0.3637838650443508
   -0.2042911046009971     17.3688670065243116     -0.2000521713120378
    0.0000000000000000      9.5496681200700468     -0.2042911046009971
ITEM: ATOMS id type x y z
1      1          2.8136855073853759     2.8138318538065032     1.5844990788514504
2      1         -0.1618965280177285     2.9139588763096334     2.3729158589771853
3      1          2.8230847389202145    -0.1338384938563571     3.9440005190203733
4      1          2.7683925921488797     2.8237824859665630     4.7440640743853457
5      1         -0.1746437971610465     2.8194610606777486     5.5868337455832711
6      1         -0.0983901024955807    -0.2018116234910930     6.3643209305455866
7      1          2.7258963321531673    -0.1070899511403378     7.1214864217483917
8      1          2.6818067545508448     2.7549613948666800     7.9743672815518476
9      1         -0.2599280187653447     2.6454347946491588     8.7957934445014168
10     1         -0.0764166105880683     5.8569463756496765     0.0058730458938431
11     1          2.7578165088252988     5.7184832199202633     0.7785042246171023
12     1          2.6907578429324528     8.5943388621605425     1.5692148350252784
13     1         -0.1990041833292318     8.6195325318631024     2.4191209732093322
14     1         -0.1292763683383796     5.6441516556796971     3.1708803972893667
15     1          2.6974506798186395     5.6696176867056485     3.9638867479136071
16     1          2.6193125570483033     8.6255470082975609     4.7896847489285443
17     1         -0.2661808024306735     8.5658728603368495     5.5674956676401299
18     1         -0.2199268757212096     5.7112914151066132     6.3359479115940465
19     1          2.6013027573858740     5.6976102823575356     7.1318525864927276
20     1          2.5534052148486812     8.5012203195161806     7.9734610180472529
21     1         -0.3141403940019721     8.5555599139487590     8.7077865680072879
22     1         -0.1864039635820090    11.5620214101698302    -0.0307308320103854
23     1          2.6663019564093244    11.5735751930468016     0.8205609630178908
24     1          2.5333036756650058    14.3636623008827122     1.5697515263736264
25     1         -0.3273829706994235    14.5102607887373853     2.3620158677849377
26     1         -0.3359565281526489    11.4710118578825959     3.1554729627444451
27     1          2.5471166741584517    11.4476707975903818     4.0163010563574231
28     1          2.5082808761368116    14.2894026943785484     4.7565512204191496
29     1         -0.3646298924324850    14.3788688545298076     5.5339190345299629
30     1         -0.3997263122914421    11.4645817334977007     6.3966436922315868
31     1          2.5463187471531694    11.5076995833002584     7.1499549373811320
32     1          2.4185525953644302    14.2166748734230222     7.9744541835317406
33     1         -0.4830801112788051    14.3648051348403438     8.7592564142740290
34     1          5.8057277933639355     0.0402246968228889    -0.0171378344082777
35     1          8.6544664899953663    -0.0464704174802852     0.8380588199142952
36     1          8.6091692600216412     2.8180146987184744     1.5951154449005323
37     1          5.7271976281716448     2.7859785041239000     2.4290822320253773
38     1          5.7225996806051516    -0.1021183355598897     3.2137116137746924
39     1          8.5949541189049228    -0.0330455367576626     3.9704836586509518
40     1          8.5708126116994094     2.7848786575072495     4.8088222838411649
41     1          5.5590417694862344     2.7691916037454685     5.5442307661660148
42     1          5.6656527584049909    -0.2086518397917047     6.3424159018117701
43     1          8.5935875132966295    -0.1765275913264942     7.1746847579448669
44     1          8.5063116646429577     2.7342522825020663     7.9526990845874090
45     1          5.5424360351855411     2.7450467246318278     8.7125843212708105
46     1          5.7243898345765603     5.7180991224278950     0.0140981750456594
47     1          8.4976260282068683     5.8418220834079406     0.7593867440075341
48     1          8.5104797205119880     8.5932720769152944     1.6195692800555956
49     1          5.5336706484916487     8.5795084673118627     2.4184362620051232
50     1          5.5677097054699729     5.6698886077321609     3.2211488953066034
51     1          8.5273337300330052     5.6497070235828977     3.9567760650314030
52     1          8.4408685668928083     8.5756104954062611     4.7537646272617131
53     1          5.5113714289437254     8.5444291622201831     5.5649019777787183
54     1          5.5080460550723549     5.6327681318792679     6.3591860739974244
55     1          8.3617359947287895     5.6797318072435115     7.2031714179470354
56     1          8.3939573455842904     8.4989760285595590     7.9637289512660905
57     1          5.4821358501191195     8.5322697423853917     8.7616285518350541
58     1          5.6053666776605953    11.5327938444718345     0.0150254478201182
59     1          8.3743686477428980    11.5523277981842138     0.7806175661720738
60     1          8.3724014163487492    14.3615406648610424     1.6384814428005823
61     1          5.4843465583688200    14.3615561086396593     2.3979550887880090
62     1          5.4687539323103369    11.5185846921246995     3.2234532302239760
63     1          8.3932916840258311    11.5084460779416062     3.9801765717928226
64     1          8.3308335541461815    14.3625647373775376     4.7489582792968816
65     1          5.4100405153326081    14.3601332210046184     5.5580252617654562
66     1          5.3625074626802789    11.3670463214194601     6.3950450777882875
67     1          8.3327216843547092    11.4255341020756784     7.1796859191393478
68     1          8.1669330256837682    14.2907639709690031     7.9480455313124994
69     1          5.3095521919265574    14.2032268802351389     8.7438718989325963
ITEM: TIMESTEP energy, energy_weight, force_weight, nsims
4        -414997.3839991170680150    1    1   400
ITEM: NUMBER OF ATOMS
69        
ITEM: BOX BOUNDS xy xz yz pp pp pp
   -0.3758984120942206     11.5817849425135986     -0.2425225766962349
   -0.1352405027737302     17.3709864731687915     -0.1333758353979857
    0.0000000000000000      9.5520655495531450     -0.1352405027737302
ITEM: ATOMS id type x y z
1      1          2.7990562773538739     2.9492964685315326     1.5519260002490094
2      1         -0.1117941356648017     2.8764809855866469     2.4071940693921241
3      1          2.8739640956055554    -0.0067402202245181     3.9949823445403760
4      1          2.7544121402894595     2.8096073537796333     4.7342023693219693
5      1         -0.0737427335622314     2.8516769606831409     5.6103044486352136
6      1         -0.0934510037295385    -0.0183503339118745     6.3763810609159313
7      1          2.7933201837367219    -0.0541085509416608     7.1985407156577397
8      1          2.7479374482741958     2.8123868071164231     7.9393922332351972
9      1         -0.2032951302464324     2.8522896584263493     8.7571350128668932
10     1         -0.0853894190102071     5.7507144349831556    -0.0001738475930019
11     1          2.8098368703824552     5.8538401734891261     0.8087743452872197
12     1          2.7131010426559743     8.6190317603216418     1.5569628044132886
13     1         -0.1874333719831793     8.7268038992708981     2.4196738430326152
14     1         -0.0690804774214076     5.7196176580844797     3.1907366335301992
15     1          2.8029761942634397     5.6830197855453743     3.9583434867119549
16     1          2.6996074631606710     8.5545054354827119     4.7529616708547371
17     1         -0.1426729096806059     8.5992588750286867     5.5929913298266491
18     1         -0.1534009731298002     5.6633622475188661     6.4069381186089522
19     1          2.6728273275613481     5.6413119607447895     7.1253890872661527
20     1          2.6818695297813973     8.6065530381404471     7.9967600285127043
21     1         -0.2732660177680901     8.6148470337309710     8.7351643068963654
22     1         -0.1728420012442721    11.5200741786899528     0.0139345532236881
23     1          2.6702419731893152    11.6060110661507228     0.7652360305123566
24     1          2.6853551194385648    14.5107993607301804     1.5492514218951345
25     1         -0.2463731916977704    14.3629070540150412     2.4204284562110296
26     1         -0.2037429514411006    11.5233648302600411     3.2172493466695391
27     1          2.7221607046021332    11.4582161817356187     3.9857025128589849
28     1          2.6331174784443077    14.4601398887361334     4.8235562112987092
29     1         -0.2507292736017760    14.4427560731776907     5.5695687098925903
30     1         -0.2731167792930320    11.4157522730772456     6.3441189595223157
31     1          2.6165348082526063    11.4834317764230285     7.1408500605646594
32     1          2.5776895407296445    14.4362367019299800     7.9192392853387501
33     1         -0.3684256006666360    14.3746861241616894     8.7650727793385723
34     1          5.8277884323867672    -0.0359169300894112    -0.0096447205853838
35     1          8.7279358858225642    -0.0681889290598593     0.7650430787882555
36     1          8.6518586996362359     2.8063459182187205     1.6198612456439863
37     1          5.6874579968050174     2.8975748028271759     2.3873018928851795
38     1          5.6948516141645404    -0.0958655028271699     3.1834971230501927
39     1          8.6736016705036771    -0.0084957598276120     3.9941990751653123
40     1          8.5939457414373468     2.9020802996732651     4.7610551359948730
41     1          5.6822259095207013     2.8158069654911393     5.5448326809454676
42     1          5.7021150335312489    -0.1173882667123580     6.3334903761853276
43     1          8.6319566278526025    -0.1073594865649512     7.1304593236598546
44     1          8.5163736819593669     2.7706779068440279     7.9951762960445878
45     1          5.6322457070616343     2.7992251728165365     8.7719521769473587
46     1          5.7200363249811996     5.7916624409126527    -0.0373055920037798
47     1          8.5983890028323930     5.7970048346339755     0.8265087101865201
48     1          8.5449290835335443     8.5789947546545235     1.5968627374203272
49     1          5.6623532986755105     8.5809301900023307     2.4216969705160105
50     1          5.6774104877763438     5.7944151240480259     3.1685481404651421
51     1          8.5420603871165479     5.7623622461968420     3.9851790596668697
52     1          8.4464465183952697     8.5654810554075027     4.8051837684206991
53     1          5.5432440095988920     8.5322159502408823     5.6032693523579686
54     1          5.6534941440555473     5.7590744115218531     6.3495349806889125
55     1          8.4749563672619441     5.6732878524295920     7.2078816805586481
56     1          8.4014641050407217     8.5978474394290085     7.9437049908308213
57     1          5.5739372530142681     8.6188115675247623     8.7136597417246566
58     1          5.6195758474000943    11.5755451834954552    -0.0146691070644488
59     1          8.5696310276906278    11.5795389490403817     0.8364304406728410
60     1          8.4693769713267457    14.5353981750395977     1.5788370345217655
61     1          5.5131120669300859    14.4701391421941423     2.3999918119677615
62     1          5.6214562652528617    11.4771389510526181     3.2017864629579225
63     1          8.4986369940898800    11.5839283666384745     3.9434900247823994
64     1          8.3611295949749227    14.4410748462967149     4.7642006311803415
65     1          5.4670882008592612    14.3640574456305359     5.5508753176121148
66     1          5.5149963704624358    11.4450142615507193     6.3216267107727830
67     1          8.4313511851212048    11.4486331345731553     7.2012907553294561
68     1          8.3408313963625389    14.3558459724258398     7.9641120236708858
69     1          5.4844586712990528    14.4290863327262890     8.7990943712064151
ITEM: TIMESTEP energy, energy_weight, force_weight, nsims
5        -414997.4834475180832669    1    1   400
ITEM: NUMBER OF ATOMS
69        
ITEM: BOX BOUNDS xy xz yz pp pp pp
   -0.1879492060471080     11.5817849425135986     -0.1212612883481159
   -0.0671511890966942     17.3722488877275190     -0.0666879176989922
    0.0000000000000000      9.5534901091010784     -0.0671511890966942
ITEM: ATOMS id type x y z
1      1          2.9169577536641089     2.9576455522069152     1.6001580044278414
2      1         -0.0234947711082729     2.7955973057099928     2.3707654450041962
3      1          2.8286455148788274    -0.0421019751734153     3.9448424214341919
4      1          2.7864865578539413     2.8243589803089799     4.7876408100199690
5      1         -0.0984149303031027     2.9296678629666197     5.5545472285280582
6      1         -0.0245952795590750    -0.0960271220369165     6.3318306479926525
7      1          2.8749502712164494    -0.0265847515289743     7.1256435160440148
8      1          2.8489404210121259     2.7725637791592583     7.9531429455690770
9      1         -0.0684859208904314     2.8696342697168808     8.7453259882078243
10     1         -0.0906400410720236     5.7359364697086246     0.0011874988205613
11     1          2.7945594750510292     5.7080522209032170     0.8187742270084206
12     1          2.8046913921607937     8.6853396231167093     1.6294165232359743
13     1         -0.0356032590014185     8.6552131746370513     2.3868659418850644
14     1         -0.0789114595394578     5.8012602226338634     3.1849129167527792
15     1          2.8638752513809966     5.6809686874571952     4.0218941852111252
16     1          2.8153265290241531     8.6393437070628867     4.7666823634186235
17     1         -0.1059590014537559     8.6158598551097345     5.5859982733162301
18     1         -0.0492868214225100     5.7779142935098218     6.4044734760842363
19     1          2.8256542599695598     5.7616423345257735     7.1843965248659742
20     1          2.8093164661855665     8.6191987702210682     7.9156588717770076
21     1         -0.1206685922154703     8.6256654004824380     8.7548909425050567
22     1         -0.0314968811637019    11.6204653752067610    -0.0449224211910151
23     1          2.8172627541894677    11.6203743002611120     0.7638645872573513
24     1          2.7618500315305408    14.4660313857012763     1.5822805583866806
25     1         -0.1653320904895487    14.4206040299043110     2.3473106714373424
26     1         -0.0764904418380107    11.5751743008162258     3.2093134858404340
27     1          2.7806199027149070    11.6406003972253131     3.9378511773723517
28     1          2.7833597568287085    14.4162851373074883     4.7311147197424397
29     1         -0.1959806373160128    14.4351685560404164     5.6065583393800260
30     1         -0.1009032598306860    11.5979501513171943     6.3653280503621934
31     1          2.7656302116428844    11.5476646844191588     7.1551915056024527
32     1          2.7284624130556669    14.3551142096284661     7.9279943382058784
33     1         -0.1302333780533234    14.4940031118395396     8.7125250352672374
34     1          5.8197120550271917     0.0259377728327176     0.0067772458833963
35     1          8.7333986421459482    -0.0543975524466851     0.8140949275529828
36     1          8.6836239395823771     2.8059711258937252     1.6215262957548680
37     1          5.7344396547770584     2.9134984547224594     2.3805224244526211
38     1          5.7550339199894376    -0.0570731061906916     3.1556467551525591
39     1          8.6568555084144680    -0.0795021451703670     3.9521795018379815
40     1          8.6376710769158240     2.8481788735353102     4.7487237127115343
41     1          5.7596284018087065     2.8207149831092506     5.5275146729153457
42     1          5.7456731868034483     0.0161143201488755     6.3434324063811447
43     1          8.6423338832076482    -0.0228201011031378     7.1693774830654569
44     1          8.5625658755962437     2.7552994701734659     7.9701634435474507
45     1          5.7602231509424504     2.7595863408721906     8.7500138858043623
46     1          5.7358479092263970     5.8322965705816765    -0.0462245618928856
47     1          8.6200082047813193     5.8223477871594058     0.7755131577473782
48     1          8.5867556423113847     8.5905049975633236     1.5554495814152705
49     1          5.7221926124340525     8.6664049788624204     2.3637952186205959
50     1          5.7485492274086347     5.7440891100169704     3.1449850601908023
51     1          8.6603286633970988     5.7394802656690462     4.0144644359532773
52     1          8.5485916956127177     8.6799069139067537     4.8110640570694629
53     1          5.7100961946393820     8.7316679808156863     5.5635781427281916
54     1          5.7055463194324547     5.6675825624781675     6.3254670682309806
55     1          8.6006052413149146     5.7868455529838103     7.1874249812305600
56     1          8.5164185276776596     8.6590949972352824     7.9358033610210583
57     1          5.6360964416219375     8.5639511674381943     8.7711060812672343
58     1          5.6736481338308371    11.5514443358797703    -0.0089296472049768
59     1          8.6486504648272575    11.6007043632910314     0.8376691197462007
60     1          8.5499349266622726    14.4554226483006047     1.5691110722712849