ITEM: TIMESTEP energy, energy_weight, force_weight, nsims
1        -306733.5543868722161278    1    1   155
ITEM: NUMBER OF ATOMS
51        
ITEM: BOX BOUNDS xy xz yz pp pp pp
   -0.7653518584922561     10.9652405297036992     -0.3826759292461276
   -0.3962728275029611     10.9585626982211100     -0.3826759292461285
    0.0000000000000000     10.9513914309146827     -0.3962728275029611
ITEM: ATOMS id type x y z
1      1          1.5928548259696320     1.6527165965529376     5.4868409465165833
2      1         -0.2214525820661306    -0.2781252903852955     7.2604593089015106
3      1          1.4431294364232425     1.4916350923526203     9.1694587721554051
4      1         -0.0752239010273904     3.6731493221514020     0.0193467281018539
5      1          1.6076258676084840     5.4571812479844652     1.8395446436598906
6      1         -0.2863745445538084     3.5152152058942225     3.6203438334060687
7      1          1.4092574286568476     5.2785631861237841     5.5040401067588354
8      1         -0.3489800084066695     3.3481678660350731     7.2584727264959428
9      1          1.3376267219267641     5.0980980920492804     9.1660966949861145
10     1         -0.3097373488917199     7.2981590057601311     0.0382630665204728
11     1          1.4227208669612648     9.0659189422333792     1.8369480687516209
12     1         -0.4180404097199150     7.2000946067704179     3.6192169352278274
13     1          1.2636621402182311     8.9392394669695889     5.5261126361878432
14     1         -0.5226976216778559     6.9902201817036085     7.2881739951957263
15     1          1.2178499113431427     8.8049576102350180     9.0895453737448779
16     1          3.7060121072907308    -0.0507324233287112     0.0205568568549700
17     1          5.3676676685591707     1.7913277745892822     1.8702994362153280
18     1          3.4804797735418207    -0.1333461810646447     3.6132265241151167
19     1          5.2762475293442135     1.6180475449683731     5.4283451843274957
20     1          3.3636968237242972    -0.2472522020408175     7.3548405905314196
21     1          5.1212857593077690     1.4910050712119758     9.0873835690764153
22     1          3.5761611878527040     3.6976229839165344    -0.0253513760234244
23     1          5.2808723079336071     5.4253292002160123     1.7886929526895814
24     1          3.3827319330569257     3.5173384869895097     3.6572445468325356
25     1          5.0484600595770068     5.2333351152916272     5.4340180050887090
26     1          3.2256209564616052     3.4081662340013383     7.2809679796341849
27     1          5.0204799332720418     5.1071985181212218     9.1797432238481775
28     1          3.3950210395953944     7.2630072849744725    -0.0304251556733672
29     1          5.0814443223407570     9.0351937852197004     1.8346033758462617
30     1          3.2205455491028490     7.1844193189606100     3.6883015977914666
31     1          4.9315380205639929     8.9276775952044822     5.5072915748746727
32     1          3.1210146721499155     6.9877143214593849     7.3134519968965632
33     1          4.8444886198040260     8.8186066784450290     9.1140107822015413
34     1          7.2526094405067578     0.0515518641605459     0.0457746259029372
35     1          8.9872403311584304     1.7632148520173392     1.8035463248873311
36     1          7.2178617746127012    -0.1325827410616303     3.6815599212265955
37     1          8.8766069533179444     1.6778222350874332     5.4663497980101985
38     1          7.0484856968071714    -0.2803812315187018     7.2609926416641963
39     1          8.7145581050446523     1.4522104552925104     9.1674327647406848
40     1          7.2094294114298503     3.6711610262910321    -0.0229803997786314
41     1          8.8742049111607262     5.4155926905401461     1.8455635283903213
42     1          7.0098091603172001     3.5273289337835365     3.6692505572582470
43     1          8.7739415005115493     5.2529328353061517     5.5250404949667571
44     1          6.9074981702358276     3.4226215071283193     7.2638312423230893
45     1          8.6593721715484957     5.1894522368018254     9.1210853810659120
46     1          7.0125948594648335     7.2934649933712228     0.0100500919161504
47     1          8.7728150279271908     9.0725946880954211     1.8168445995018905
48     1          6.9096254348593540     7.1801909399415482     3.6199638201234161
49     1          8.5879755376895144     8.9796352670865147     5.4882164412803061
50     1          6.8149751107643644     7.0811658313877723     7.2827683883854268
51     1          8.4501221513993823     8.7918698365052226     9.1466316918568058
ITEM: TIMESTEP energy, energy_weight, force_weight, nsims
2        -306733.7174590548384003    1    1   155
ITEM: NUMBER OF ATOMS
51        
ITEM: BOX BOUNDS xy xz yz pp pp pp
   -0.6122990311786529     10.9652405297036992     -0.3061495155893257
   -0.3148120556077931     10.9609640858971122     -0.3061495155893272
    0.0000000000000000     10.9564464067988769     -0.3148120556077931
ITEM: ATOMS id type x y z
1      1          1.6330817852230264     1.7216650277445738     5.4646010535818652
2      1         -0.1620355477062755    -0.1932008276364449     7.2954835086131951
3      1          1.5680369043057347     1.5688997993144835     9.1727785662683665
4      1         -0.0555366546179454     3.6975032795984872    -0.0433984842173304
5      1          1.6562176482432338     5.4252244573535160     1.8669839459417321
6      1         -0.2334702603444139     3.5934534419618012     3.6427510929683007
7      1          1.4720664464781805     5.3614513605163774     5.4884116029131214
8      1         -0.2893239441018807     3.4624799074649775     7.3194879870458500
9      1          1.4064733603782100     5.2080581069264458     9.1651923227762975
10     1         -0.2415622428444080     7.2771348568869749     0.0452972363796286
11     1          1.5419879424140444     9.0333091020322875     1.7936842238356070
12     1         -0.2890028879997052     7.1752702131518138     3.6297600344637595
13     1          1.4154441887482228     8.9606038810868363     5.5248637001085408
14     1         -0.4633264475877769     7.0847911044140073     7.3519223553438975
15     1          1.3608699791695364     8.8739078804224949     9.1449645314200652
16     1          3.6058230351344518     0.0461091009967275    -0.0293983369987227
17     1          5.3661217382975570     1.8091958168087385     1.8530604938479720
18     1          3.5954143685467206    -0.1595860681629889     3.6993214170558848
19     1          5.2811793323536742     1.7019801869137197     5.4789079812998631
20     1          3.4700712872270301    -0.1611378465020789     7.2697731114750006
21     1          5.1935589237865374     1.5675873925818709     9.1456306833615990
22     1          3.5030099208024841     3.6325337369342834     0.0000350606285018
23     1          5.2444238419751779     5.4439513607142569     1.8439775997767358
24     1          3.4033757575986421     3.4977652220897353     3.6764388787352855
25     1          5.2048720702572657     5.3102748670795510     5.4654381260873448
26     1          3.3959713791911317     3.4769543167273058     7.3174884355766094
27     1          5.1301448191433474     5.2083384901005338     9.0855477225559955
28     1          3.4685691190133916     7.3306818210216633    -0.0321966134110192
29     1          5.2130205698877203     9.0446046908392628     1.8425784615705874
30     1          3.3443794595902823     7.1693758484449930     3.6926500368387849
31     1          5.0199084096095170     8.9233993902388153     5.5240518274297976
32     1          3.2653499915298290     7.1023453700836363     7.3448170998490889
33     1          5.0018345164548013     8.8505131269329951     9.0817425487189141
34     1          7.2570061893708644    -0.0232343013398057    -0.0108600296784190
35     1          9.0747216221169484     1.8222665092585586     1.8225895207460239
36     1          7.2162894451474404    -0.0666823849476160     3.6997914486067360
37     1          8.9270490925314441     1.7211791324425183     5.5114957398476045
38     1          7.1189510229482558    -0.1614741594754484     7.3299634454553910
39     1          8.7814089976473610     1.5230281148766733     9.1597338211764310
40     1          7.1546533676775965     3.7072054870775468    -0.0283530920115141
41     1          8.9489193558232962     5.3769391212541526     1.8467309547587645
42     1          7.0681402971713618     3.5545683636994392     3.7012300300199485
43     1          8.8228532847027097     5.3535672602591600     5.5264786803089034
44     1          6.9955566770700282     3.4515922852237213     7.3232679610561959
45     1          8.7636204645262445     5.2246812008175540     9.1567722937126721
46     1          7.0569902267227329     7.2896233914600979    -0.0465868101217088
47     1          8.8012518905999215     9.0518257003913210     1.8361722273565322
48     1          7.0484492595541273     7.1526048486021372     3.6939341323576613
49     1          8.7507685660274266     8.9352824440331116     5.4530496721351769
50     1          6.8502976318384388     7.1491616708142756     7.2755088111689599
51     1          8.6061139706446763     8.9224486683355799     9.1232148896579304
ITEM: TIMESTEP energy, energy_weight, force_weight, nsims
3        -306734.1169028939330019    1    1   155
ITEM: NUMBER OF ATOMS
51        
ITEM: BOX BOUNDS xy xz yz pp pp pp
   -0.4592242733839903     10.9652405297036992     -0.2296121366919950
   -0.2344697382466525     10.9628391420276952     -0.2296121366919953
    0.0000000000000000     10.9603281019463914     -0.2344697382466525
ITEM: ATOMS id type x y z
1      1          1.6874944215438974     1.6656467028523676     5.5331791580023104
2      1         -0.1929361683870067    -0.1481542549644843     7.3277257344949049
3      1          1.6059637336303252     1.6332515570826305     9.1680031839600602
4      1         -0.0923985395849177     3.6328499949695821     0.0374744578133649
5      1          1.6496282746279649     5.4435986761345712     1.7875714236885163
6      1         -0.1734217628555719     3.6264256627159477     3.6810174247762140
7      1          1.6022334653184667     5.4075039400140970     5.4959162345213137
8      1         -0.2452335118681696     3.4542493401036705     7.3003928682742716
9      1          1.5377119331380109     5.2729231219220996     9.1005029073114141
10     1         -0.1245536822281764     7.3520327271446337    -0.0500064969651304
11     1          1.5628861849852467     9.0821688396511639     1.7747335913827063
12     1         -0.2496840408202752     7.2031041489434466     3.6697622638483254
13     1          1.4682698800413088     9.0509239841689109     5.5167507222103032
14     1         -0.2952894772439817     7.1476132593544870     7.2993746537936000
15     1          1.4134164505031808     8.9758300526999761     9.1324423994332964
16     1          3.7047536818396400     0.0437481257804861    -0.0407833808673425
17     1          5.3552675547108102     1.8160829897652890     1.8097058062903968
18     1          3.5708222823505387    -0.0381167497303310     3.6506123785886047
19     1          5.3353830293716156     1.7413918126654728     5.4413666815579260
20     1          3.4489983433295794    -0.1621006750988722     7.3450233243053971
21     1          5.2149671805945248     1.6176129624238789     9.1792309440676956
22     1          3.5703857148518860     3.6531241131040728     0.0158234256807800
23     1          5.2957797592699736     5.4349180983338119     1.8672683534490091
24     1          3.4644676104435645     3.5837804580702821     3.6175637012628057
25     1          5.2495009132137866     5.3713145986580653     5.4323671561534175
26     1          3.4209393044232983     3.5039838966737666     7.3051847237204424
27     1          5.1346777776244172     5.3364484347068517     9.1129023264931455
28     1          3.4841167217399285     7.3406091171434511     0.0184736330158306
29     1          5.2309438187082744     9.1079813543002341     1.7942857206837686
30     1          3.3973026815003564     7.2766036525991939     3.6278828501707880
31     1          5.1337566963014689     9.0238174223927512     5.4891219271309168
32     1          3.3901487115757698     7.1654550607862220     7.2614628788889677
33     1          5.0689663305689825     8.9449609644949799     9.1622128426238021
34     1          7.2691098009299289    -0.0413900880370476     0.0325872475127070
35     1          9.0267040371249276     1.7570685105043324     1.8628162681739984
36     1          7.2781360911356545    -0.1035963975550937     3.7010759212355864
37     1          8.9846501919757120     1.7502993072897823     5.4850194763223579
38     1          7.1247341232607333    -0.1412516530142629     7.2775372960832829
39     1          8.9588376851229281     1.6709319611707314     9.1398165081802851
40     1          7.2219414085079627     3.6174977380272044    -0.0092154438681165
41     1          8.9299761044509989     5.4380430918982317     1.8273716631251142
42     1          7.1725582234036853     3.5273442331417488     3.6662253659698272
43     1          8.8934108779918137     5.3884167160172280     5.4934994821748333
44     1          7.0449215730961123     3.5055379624552363     7.3154556471847760
45     1          8.7960224888143905     5.3243614171555009     9.1779562579094378
46     1          7.1925222243237679     7.3156621556846773     0.0377386017206218
47     1          8.9072943196729337     9.0944116620508080     1.8264630519254625
48     1          7.0363239603721492     7.2056094106522091     3.6504819506841915
49     1          8.7952984879744598     9.0704487858251550     5.4589459518006374
50     1          7.0513367926164277     7.1142033903763551     7.3534167435658677
51     1          8.7231484624538371     8.9370045354859506     9.1516887355803131
ITEM: TIMESTEP energy, energy_weight, force_weight, nsims
4        -306734.2484482250874862    1    1   155
ITEM: NUMBER OF ATOMS
51        
ITEM: BOX BOUNDS xy xz yz pp pp pp
   -0.3061495155893252     10.9652405297036992     -0.1530747577946627
   -0.1552239449384838     10.9641769013723174     -0.1530747577946625
    0.0000000000000000     10.9630694120788181     -0.1552239449384838
ITEM: ATOMS id type x y z
1      1          1.6785267758568805     1.7759766255978355     5.5073845274061499
2      1         -0.1264173676455612    -0.0550504190107460     7.3220213767808486
3      1          1.6759423451575475     1.7231293694333185     9.1291156344000370
4      1         -0.1038235769051437     3.6151969551764425    -0.0468309436075771
5      1          1.7147771281752646     5.4377313374966549     1.8513214722413966
6      1         -0.0499069087207566     3.5674139941652268     3.6032462756581807
7      1          1.6804656613982201     5.4535317349178998     5.4825882570099100
8      1         -0.1392345238324225     3.5088664848985611     7.2842152319132945
9      1          1.5776702773338569     5.3247693610878644     9.1139394574128971
10     1         -0.1536377641221741     7.2545976523448754     0.0445407584073938
11     1          1.6702531427875222     9.0810555030784545     1.8116351609696715
12     1         -0.1158568365117019     7.2449583012233250     3.7012539235882831
13     1          1.5782907955584489     9.0977287513437624     5.4800645584312493
14     1         -0.1896559342269294     7.1657671483019341     7.3527398972734934
15     1          1.5233421497708606     9.0600175373344509     9.1563117206905815
16     1          3.6096451049005651     0.0462364698040829     0.0011237146147381
17     1          5.3885839311950319     1.7894332665682886     1.7971156718403143
18     1          3.5591912328764113    -0.0842671577826812     3.6755400442822523
19     1          5.3401785717220154     1.7504303213937609     5.5169706353000709
20     1          3.5302950342602863    -0.0938761765806515     7.3218251378383723
21     1          5.2872817064342712     1.6829459602281300     9.1252226484518069
22     1          3.6142321221709617     3.7081821890468833    -0.0145567635653583
23     1          5.4017252690162287     5.4537833680624841     1.8787006417911223
24     1          3.6016525216480590     3.5718334123417201     3.6078321275932534
25     1          5.3605479257852853     5.4281812273393317     5.4980922297724710
26     1          3.5035027562136105     3.5783849384512014     7.2774718479179246
27     1          5.2526123264868083     5.3662300929501914     9.1602682924414012
28     1          3.5141048613113011     7.3424377471561737    -0.0152825187604379
29     1          5.3646591317506696     9.1097473610062867     1.8674108729105636
30     1          3.5249344532627656     7.3109666815754748     3.6117612916705428
31     1          5.2273727404030623     9.0531523010192299     5.5003878965073607
32     1          3.4349205562473188     7.1983601210562052     7.3299125941436625
33     1          5.2077696283126533     8.9561036772496667     9.1642720053906910
34     1          7.3111452550900067     0.0312809658461261     0.0123005638803524
35     1          9.0792156064269225     1.7734650748729570     1.8631670687411479
36     1          7.2825064790044927    -0.0959449293966831     3.6333245528971605
37     1          8.9995554536533309     1.7941149051185805     5.4866917338908507
38     1          7.2183821189767068    -0.0501360798530184     7.3053586075814296
39     1          8.9716973199717565     1.7299982127600233     9.1028020751971646
40     1          7.2955237524977381     3.6709071212100151    -0.0370025518796484
41     1          9.0643816196022460     5.4214688193797951     1.8731906031046117
42     1          7.2195650121502597     3.5615895875855270     3.6704783951346953
43     1          9.0150225732030282     5.3967801547014886     5.5143307281856435
44     1          7.1833334041210639     3.5148665703688597     7.3402452870645476
45     1          8.9419550778272150     5.3955195557434470     9.1235025428610523
46     1          7.2176504744869066     7.2920996326477079    -0.0328267187405876
47     1          8.9387102276211081     9.0573305074124519     1.8270952814545851
48     1          7.1127557400776249     7.2312817703260777     3.6228745551335670
49     1          8.9842460170695535     9.0607211124521818     5.4525922027915215
50     1          7.0778132359453041     7.2246671324709606     7.2631924500086926
51     1          8.8431032879124629     8.9896787682187469     9.1523825566132917
ITEM: TIMESTEP energy, energy_weight, force_weight, nsims
5        -306734.3242999918293208    1    1   155
ITEM: NUMBER OF ATOMS
51        
ITEM: BOX BOUNDS xy xz yz pp pp pp
   -0.1530747577946631     10.9652405297036992     -0.0765373788973312
   -0.0770746756832856     10.9649773639309860     -0.0765373788973319
    0.0000000000000000     10.9647032329177438     -0.0770746756832856
ITEM: ATOMS id type x y z
1      1          1.8026621585236127     1.8251529013557846     5.4688727067746461
2      1         -0.0699789495417258    -0.0403107605175018     7.2692561446835970
3      1          1.7310061022199861     1.8022840155239226     9.1833205292411169
4      1         -0.0144156347397312     3.6933179458756804    -0.0322855686693263
5      1          1.8305847742889938     5.4512608402107547     1.7949021827628153
6      1         -0.0884830188195555     3.5764756163781901     3.6611462071106100
7      1          1.7968307735858906     5.4109263444191313     5.5141141687839887
8      1         -0.0312743500702290     3.6001601432044539     7.3427646116274010
9      1          1.7804731129695845     5.4082253651267012     9.1123471016847635
10     1         -0.0322314337647839     7.3307080578410639    -0.0257484126018607
11     1          1.7356714441157641     9.1102548893013289     1.8785486143157750
12     1         -0.1224451337570301     7.2923327507018509     3.6711931646829323
13     1          1.6822773536802211     9.0940702227090657     5.5139146111851485
14     1         -0.0950227873972450     7.2928474043987928     7.2805574643057653
15     1          1.6547118217183268     9.1259824513876122     9.1860770556338718
16     1          3.6832877270763702    -0.0286918335839005     0.0205588185617208
17     1          5.4392273479941622     1.7624246856704011     1.8522442912600052
18     1          3.6553558246294791     0.0106184397665013     3.6648029356387881
19     1          5.4271725045835888     1.7809145619860787     5.4642127079006562
20     1          3.6010871137135663    -0.0168165643439088     7.3042631526953334
21     1          5.3524123341508849     1.8166824263193200     9.1701749465351714
22     1          3.6837807490281684     3.6253178328837441    -0.0083046662286119
23     1          5.3878338533464039     5.5175595656525322     1.8351349683353606
24     1          3.6158353554056379     3.5993373312157808     3.6245262912533116
25     1          5.4538712163644085     5.4732333758942167     5.4768835189566154
26     1          3.5652668462217032     3.6097439662843649     7.2873270720817684
27     1          5.3766207121720084     5.4012362212766014     9.1343510681325828
28     1          3.6038478398219542     7.2567716152884847     0.0272308404789512
29     1          5.4192244517430659     9.0831121860452306     1.8102253555308181
30     1          3.5966124825267927     7.2644692560922515     3.6366192624488964
31     1          5.3759332744660835     9.0501762668558587     5.4335882917711169
32     1          3.5242566041991434     7.2130608542910046     7.2557399550083801
33     1          5.3591930894601552     9.0587184540829178     9.1577497448316283
34     1          7.3503199584149579     0.0137430816614019    -0.0121072253097878
35     1          9.1110639013977277     1.7611114515303443     1.7926039809651959
36     1          7.3278829094938640     0.0045535231328673     3.6746569144342116
37     1          9.1153816795995706     1.8426529618534166     5.4484443681813968
38     1          7.2644480999545475    -0.0548760821647076     7.3417120001170408
39     1          9.0550230531777682     1.7591002210601729     9.1450076632046553
40     1          7.2991776008026337     3.6567868162266723     0.0424630062101206
41     1          9.0685468149250532     5.4757628971416992     1.8654490833634083
42     1          7.2758470224359986     3.5746006089848152     3.7045105119264763
43     1          9.0371542159421860     5.4870991712225248     5.5142380699305198
44     1          7.1913814755477894     3.6306957535746789     7.3051227854287939
45     1          9.0815049800918501     5.3754246647285804     9.0883344016046728
46     1          7.2593208441653969     7.3623397828693289     0.0460122806466160
47     1          9.0556434081299280     9.1619985968791280     1.8032090419320741
48     1          7.2141903324850754     7.2762005903074787     3.6411564566466774
49     1          8.9830696306039393     9.1459802702114956     5.5091285182239806
50     1          7.1978034809291369     7.2806298748769152     7.3008860240995945
51     1          9.0092404889735977     9.0853922747326443     9.1176013874739770
ITEM: TIMESTEP energy, energy_weight, force_weight, nsims
6        -306734.3516632275423035    1    1   155
ITEM: NUMBER OF ATOMS
51        
ITEM: BOX BOUNDS xy xz yz pp pp pp
    0.0000000000000000     10.9652405297037010      0.0000000000000007
    0.0000000000000000     10.9652405297036992      0.0000000000000007
    0.0000000000000000     10.9652405297036992      0.0000000000000007
ITEM: ATOMS id type x y z
1      1          1.8432678982837221     1.7926238383732325     5.5255601467661695
2      1          0.0076844405632168     0.0260325775415700     7.3052011403522323
3      1          1.8213549616091622     1.7832682951532894     9.1271734450032156
4      1          0.0370340033650215     3.6066287992553332     0.0388509437207932
5      1          1.7964167150724573     5.4941074508307679     1.8289955412102590
6      1         -0.0461176086198274     3.6376110863720115     3.6569811837677326
7      1          1.7961381979630024     5.4356857458125587     5.4329148295307030
8      1         -0.0110277424007223     3.6232411386578347     7.3432022779319741
9      1          1.8721755618921807     5.4506346582267051     9.0912326761190076
10     1         -0.0009495898298719     7.3304124213781270    -0.0393180629673586
11     1          1.8545818334622708     9.1365805248536489     1.8545412620723101
12     1          0.0065944956545645     7.2989827524478379     3.6686251726862249
13     1          1.8362808470181955     9.1675869354994930     5.4598838386135089
14     1         -0.0279328537253663     7.3414840247409705     7.3453898434176486
15     1          1.8409202402863134     9.0848618713712490     9.1816641112915249
16     1          3.6921401310021746    -0.0275720973119399     0.0127141963941914
17     1          5.5162100861664909     1.8532835489835531     1.7971689305727943
18     1          3.6250854921149305     0.0328025170446088     3.6178451437931671
19     1          5.4603049038498499     1.8795540722446176     5.4505261023454601
20     1          3.6753468651309342    -0.0094136589947502     7.2958916511425134
21     1          5.5087394677936050     1.8194097279391928     9.1426168897652502
22     1          3.6565897246808228     3.7023389012188517    -0.0023092796555556
23     1          5.4844339156354627     5.5089587726041982     1.8817613751632465
24     1          3.6523220530666620     3.6247192530812389     3.7030757653824482
25     1          5.4535612809240819     5.4864219137434986     5.5281786462046627
26     1          3.6802066597336984     3.6109019534897593     7.2643556193790859
27     1          5.5015429804339604     5.5067481801134104     9.1833933297230601
28     1          3.6888231457419396     7.3379148389485493     0.0144642487827321
29     1          5.5276852103808274     9.0932415081840485     1.7913430982793626
30     1          3.6747317151372183     7.3625986919049664     3.6998969421528871
31     1          5.4818384432020828     9.1175317090054477     5.4429326732786398
32     1          3.6493329284982656     7.3407581258179038     7.2569760125025953
33     1          5.4780192499255875     9.1165919878920523     9.1338085120477395
34     1          7.3348752742737160     0.0276587227121246     0.0111670009554502
35     1          9.1311066767812203     1.8479029054556275     1.8574525334329464
36     1          7.2801674962229184    -0.0263878513347317     3.6752207648648421
37     1          9.1066706382607752     1.8097000074501401     5.4695222850391190
38     1          7.3207937123854716    -0.0457480800139764     7.3044412491835242
39     1          9.1520020391346240     1.8734091514517717     9.1037955521938869
40     1          7.3498812059386154     3.7070221554490885    -0.0514291711324163
41     1          9.1237402281933662     5.4853528027918514     1.8070880871559640
42     1          7.2716321529945969     3.6406670989076400     3.6590744481848532
43     1          9.1376057748431769     5.5256983087968434     5.5092570271466057
44     1          7.3216983447291719     3.6070696019246280     7.3195085861953890
45     1          9.1413427288156992     5.4888167222751862     9.1302766080731228
46     1          7.3629079116879055     7.3062647686836133    -0.0164007102602778
47     1          9.1580011222284252     9.1073647379863072     1.8127538269376622
48     1          7.3365123846848022     7.2638588939830901     3.6785651632264016
49     1          9.1600724561644871     9.1053811259744837     5.4794228007133876
50     1          7.2632272961285809     7.3132353720883474     7.2767134454560622
51     1          9.0965541073480711     9.1349039395766578     9.1607358532165328
ITEM: TIMESTEP energy, energy_weight, force_weight, nsims
7        -306734.4251682834583335    1    1   155
ITEM: NUMBER OF ATOMS
51        
ITEM: BOX BOUNDS xy xz yz pp pp pp
    0.0000000000000000     11.1183152874983655      0.0765373788973325
    0.0000000000000000     11.0409774460423638      0.0765373788973330
    0.0000000000000000     10.9647141981582728      0.0760000821113778
ITEM: ATOMS id type x y z
1      1          1.8243944845283602     1.9163041741767217     5.4771685963205679
2      1          0.0456583235112901     0.0239122926489144     7.3500075696511891
3      1          1.8617999167754169     1.9396917331690522     9.1644144845484057
4      1          0.0226626376040090     3.6311343810648222     0.0352614243898572
5      1          1.8628308730980454     5.4713984203006865     1.8231490815274083
6      1          0.0027534561539175     3.6829646413662895     3.6961821302993378
7      1          1.9037532283888030     5.5006010875757276     5.4455902194298718
8      1          0.1231413045314016     3.7355909532588543     7.3540963115756828
9      1          1.9255085537223962     5.5895822334637213     9.0918631636420333
10     1          0.0395240800556182     7.2819979562728827    -0.0270960017264887
11     1          1.8610005687895868     9.1904439591319562     1.8285908691839541
12     1          0.0808022040666347     7.2869164936834796     3.6734939436805085
13     1          1.9617002620045449     9.1506108340957830     5.5277137358312380
14     1          0.1536443763157287     7.3433557496128348     7.2950842197611951
15     1          1.9041853494604917     9.2432274952771465     9.1601557895538424
16     1          3.6837106366003765    -0.0237907389037922     0.0037926946411429
17     1          5.5500085421038889     1.8405069147948219     1.8594707937802275
18     1          3.6789227433605354     0.0771207140669483     3.6230738019116977
19     1          5.5318763534760036     1.8422909996878860     5.4963711002958018
20     1          3.7244322116043778     0.0178932706424444     7.3072451842783730