ITEM: TIMESTEP energy, energy_weight, force_weight, nsims
1        -24057.8496238187581184    1    1   600
ITEM: NUMBER OF ATOMS
4         
ITEM: BOX BOUNDS xy xz yz pp pp pp
    0.0000000000000000      5.5431846009998997      0.0000000000000004
    0.0000000000000000      5.9090569574042968      0.0000000000000002
    0.0000000000000000      3.2496309973055797      0.0000000000000002
ITEM: ATOMS id type x y z
1      1          0.0000000000000000     0.0000000000000000     0.0000000000000000
2      1          2.7715923004999494     0.0000000000000000     0.8124096991049934
3      1          2.7715923004999494     2.9545284787021484     1.6248154986527898
4      1          0.0000000000000003     2.9545284787021484     2.4372212982005865
ITEM: TIMESTEP energy, energy_weight, force_weight, nsims
2        -24057.8587165067765454    1    1   600
ITEM: NUMBER OF ATOMS
4         
ITEM: BOX BOUNDS xy xz yz pp pp pp
    0.0000000000000000      5.5509105888352996      0.0000000000000004
    0.0000000000000000      5.9090719927587196      0.0000000000000002
    0.0000000000000000      3.2496418314689048      0.0000000000000002
ITEM: ATOMS id type x y z
1      1          0.0000000000000000     0.0000000000000000     0.0000000000000000
2      1          2.7754552944176494     0.0000000000000000     0.8124124076523251
3      1          2.7754552944176494     2.9545359963793598     1.6248209157344524
4      1          0.0000000000000003     2.9545359963793598     2.4372294238165795
ITEM: TIMESTEP energy, energy_weight, force_weight, nsims
3        -24057.8675395298560034    1    1   600
ITEM: NUMBER OF ATOMS
4         
ITEM: BOX BOUNDS xy xz yz pp pp pp
    0.0000000000000000      5.5585836589458006      0.0000000000000004
    0.0000000000000000      5.9090468000586727      0.0000000000000002
    0.0000000000000000      3.2496313857745989      0.0000000000000002
ITEM: ATOMS id type x y z
1      1          0.0000000000000000     0.0000000000000000     0.0000000000000000
2      1          2.7792918294728999     0.0000000000000000     0.8124097962224812
3      1          2.7792918294728999     2.9545234000293363     1.6248156928872994
4      1          0.0000000000000003     2.9545234000293363     2.4372215895521174
ITEM: TIMESTEP energy, energy_weight, force_weight, nsims
4        -24057.8761020038218703    1    1   600
ITEM: NUMBER OF ATOMS
4         
ITEM: BOX BOUNDS xy xz yz pp pp pp
    0.0000000000000000      5.5663096467812005      0.0000000000000004
    0.0000000000000000      5.9090885611396340      0.0000000000000002
    0.0000000000000000      3.2496505359583918      0.0000000000000002
ITEM: ATOMS id type x y z
1      1          0.0000000000000000     0.0000000000000000     0.0000000000000000
2      1          2.7831548233905998     0.0000000000000000     0.8124145837799196
3      1          2.7831548233905998     2.9545442805698170     1.6248252679791959
4      1          0.0000000000000003     2.9545442805698170     2.4372359521784723
ITEM: TIMESTEP energy, energy_weight, force_weight, nsims
5        -24057.8843959013065614    1    1   600
ITEM: NUMBER OF ATOMS
4         
ITEM: BOX BOUNDS xy xz yz pp pp pp
    0.0000000000000000      5.5739827168917007      0.0000000000000004
    0.0000000000000000      5.9090849838485120      0.0000000000000002
    0.0000000000000000      3.2496486458960119      0.0000000000000002
ITEM: ATOMS id type x y z
1      1          0.0000000000000000     0.0000000000000000     0.0000000000000000
2      1          2.7869913584458499     0.0000000000000000     0.8124141112631905
3      1          2.7869913584458499     2.9545424919242560     1.6248243229480059
4      1          0.0000000000000003     2.9545424919242560     2.4372345346328212
ITEM: TIMESTEP energy, energy_weight, force_weight, nsims
6        -24057.8924412226879213    1    1   600
ITEM: NUMBER OF ATOMS
4         
ITEM: BOX BOUNDS xy xz yz pp pp pp
    0.0000000000000000      5.5816557870022008      0.0000000000000004
    0.0000000000000000      5.9090980420908972      0.0000000000000002
    0.0000000000000000      3.2496567441600419      0.0000000000000002
ITEM: ATOMS id type x y z
1      1          0.0000000000000000     0.0000000000000000     0.0000000000000000
2      1          2.7908278935010999     0.0000000000000000     0.8124161358340570
3      1          2.7908278935010999     2.9545490210454486     1.6248283720800210
4      1          0.0000000000000003     2.9545490210454486     2.4372406083259848
ITEM: TIMESTEP energy, energy_weight, force_weight, nsims
7        -24057.9002327977977984    1    1   600
ITEM: NUMBER OF ATOMS
4         
ITEM: BOX BOUNDS xy xz yz pp pp pp
    0.0000000000000000      5.5892759393878011      0.0000000000000004
    0.0000000000000000      5.9090607729839340      0.0000000000000002
    0.0000000000000000      3.2496329775397634      0.0000000000000002
ITEM: ATOMS id type x y z
1      1          0.0000000000000000     0.0000000000000000     0.0000000000000000
2      1          2.7946379696939001     0.0000000000000000     0.8124101941647275
3      1          2.7946379696939001     2.9545303864919670     1.6248164887698817
4      1          0.0000000000000003     2.9545303864919670     2.4372227833750362
ITEM: TIMESTEP energy, energy_weight, force_weight, nsims
8        -24057.9077800145751098    1    1   600
ITEM: NUMBER OF ATOMS
4         
ITEM: BOX BOUNDS xy xz yz pp pp pp
    0.0000000000000000      5.5969490094983012      0.0000000000000004
    0.0000000000000000      5.9090908557580208      0.0000000000000002
    0.0000000000000000      3.2496501613538173      0.0000000000000002
ITEM: ATOMS id type x y z
1      1          0.0000000000000000     0.0000000000000000     0.0000000000000000
2      1          2.7984745047491502     0.0000000000000000     0.8124144901285512
3      1          2.7984745047491502     2.9545454278790104     1.6248250806769087
4      1          0.0000000000000003     2.9545454278790104     2.4372356712252663
ITEM: TIMESTEP energy, energy_weight, force_weight, nsims
9        -24057.9150729408502229    1    1   600
ITEM: NUMBER OF ATOMS
4         
ITEM: BOX BOUNDS xy xz yz pp pp pp
    0.0000000000000000      5.6045691618839006      0.0000000000000004
    0.0000000000000000      5.9090766135873762      0.0000000000000002
    0.0000000000000000      3.2496468960126847      0.0000000000000002
ITEM: ATOMS id type x y z
1      1          0.0000000000000000     0.0000000000000000     0.0000000000000000
2      1          2.8022845809419499     0.0000000000000000     0.8124136737913088
3      1          2.8022845809419499     2.9545383067936881     1.6248234480063424
4      1          0.0000000000000003     2.9545383067936881     2.4372332222213760
ITEM: TIMESTEP energy, energy_weight, force_weight, nsims
10       -24057.9221360668889247    1    1   600
ITEM: NUMBER OF ATOMS
4         
ITEM: BOX BOUNDS xy xz yz pp pp pp
    0.0000000000000000      5.6121893142695001      0.0000000000000004
    0.0000000000000000      5.9090685168050419      0.0000000000000002
    0.0000000000000000      3.2496428152094108      0.0000000000000002
ITEM: ATOMS id type x y z
1      1          0.0000000000000000     0.0000000000000000     0.0000000000000000
2      1          2.8060946571347496     0.0000000000000000     0.8124126535880419
3      1          2.8060946571347496     2.9545342584025209     1.6248214076047054
4      1          0.0000000000000003     2.9545342584025209     2.4372301616213687
ITEM: TIMESTEP energy, energy_weight, force_weight, nsims
11       -24057.9289657191438891    1    1   600
ITEM: NUMBER OF ATOMS
4         
ITEM: BOX BOUNDS xy xz yz pp pp pp
    0.0000000000000000      5.6198094666551004      0.0000000000000004
    0.0000000000000000      5.9090779193322369      0.0000000000000002
    0.0000000000000000      3.2496492042838447      0.0000000000000002
ITEM: ATOMS id type x y z
1      1          0.0000000000000000     0.0000000000000000     0.0000000000000000
2      1          2.8099047333275498     0.0000000000000000     0.8124142508604838
3      1          2.8099047333275498     2.9545389596661185     1.6248246021419224
4      1          0.0000000000000003     2.9545389596661185     2.4372349534233608
ITEM: TIMESTEP energy, energy_weight, force_weight, nsims
12       -24057.9355608091682370    1    1   600
ITEM: NUMBER OF ATOMS
4         
ITEM: BOX BOUNDS xy xz yz pp pp pp
    0.0000000000000000      5.6273767013158000      0.0000000000000004
    0.0000000000000000      5.9090437873467589      0.0000000000000002
    0.0000000000000000      3.2496243415787305      0.0000000000000002
ITEM: ATOMS id type x y z
1      1          0.0000000000000000     0.0000000000000000     0.0000000000000000
2      1          2.8136883506578996     0.0000000000000000     0.8124080351692876
3      1          2.8136883506578996     2.9545218936733795     1.6248121707893652
4      1          0.0000000000000003     2.9545218936733795     2.4372163064094430
ITEM: TIMESTEP energy, energy_weight, force_weight, nsims
13       -24057.9419273234634602    1    1   600
ITEM: NUMBER OF ATOMS
4         
ITEM: BOX BOUNDS xy xz yz pp pp pp
    0.0000000000000000      5.6349968537014004      0.0000000000000004
    0.0000000000000000      5.9090718306717278      0.0000000000000002
    0.0000000000000000      3.2496407005642065      0.0000000000000002
ITEM: ATOMS id type x y z
1      1          0.0000000000000000     0.0000000000000000     0.0000000000000000
2      1          2.8174984268506997     0.0000000000000000     0.8124121249254720
3      1          2.8174984268506997     2.9545359153358639     1.6248203502821033
4      1          0.0000000000000003     2.9545359153358639     2.4372285756387346
ITEM: TIMESTEP energy, energy_weight, force_weight, nsims
14       -24057.9480689355696086    1    1   600
ITEM: NUMBER OF ATOMS
4         
ITEM: BOX BOUNDS xy xz yz pp pp pp
    0.0000000000000000      5.6425640883621009      0.0000000000000004
    0.0000000000000000      5.9090567476913538      0.0000000000000002
    0.0000000000000000      3.2496316543849706      0.0000000000000002
ITEM: ATOMS id type x y z
1      1          0.0000000000000000     0.0000000000000000     0.0000000000000000
2      1          2.8212820441810500     0.0000000000000000     0.8124098633752354
3      1          2.8212820441810500     2.9545283738456769     1.6248158271924853
4      1          0.0000000000000003     2.9545283738456769     2.4372217910097351
ITEM: TIMESTEP energy, energy_weight, force_weight, nsims
15       -24057.9539920401657582    1    1   600
ITEM: NUMBER OF ATOMS
4         
ITEM: BOX BOUNDS xy xz yz pp pp pp
    0.0000000000000000      5.6501313230227996      0.0000000000000004
    0.0000000000000000      5.9090485909003183      0.0000000000000002
    0.0000000000000000      3.2496278293859793      0.0000000000000002
ITEM: ATOMS id type x y z
1      1          0.0000000000000000     0.0000000000000000     0.0000000000000000
2      1          2.8250656615113994     0.0000000000000000     0.8124089071231925
3      1          2.8250656615113994     2.9545242954501592     1.6248139146929896
4      1          0.0000000000000003     2.9545242954501592     2.4372189222627867
ITEM: TIMESTEP energy, energy_weight, force_weight, nsims
16       -24057.9597027598174463    1    1   600
ITEM: NUMBER OF ATOMS
4         
ITEM: BOX BOUNDS xy xz yz pp pp pp
    0.0000000000000000      5.6576985576835002      0.0000000000000004
    0.0000000000000000      5.9090531315057042      0.0000000000000002
    0.0000000000000000      3.2496349513709024      0.0000000000000002
ITEM: ATOMS id type x y z
1      1          0.0000000000000000     0.0000000000000000     0.0000000000000000
2      1          2.8288492788417496     0.0000000000000000     0.8124106876236965
3      1          2.8288492788417496     2.9545265657528521     1.6248174756854512
4      1          0.0000000000000003     2.9545265657528521     2.4372242637472059
ITEM: TIMESTEP energy, energy_weight, force_weight, nsims
17       -24057.9652044959439081    1    1   600
ITEM: NUMBER OF ATOMS
4         
ITEM: BOX BOUNDS xy xz yz pp pp pp
    0.0000000000000000      5.6652657923442007      0.0000000000000004
    0.0000000000000000      5.9090705057177315      0.0000000000000002
    0.0000000000000000      3.2496417806149718      0.0000000000000002
ITEM: ATOMS id type x y z
1      1          0.0000000000000000     0.0000000000000000     0.0000000000000000
2      1          2.8326328961720999     0.0000000000000000     0.8124123949388113
3      1          2.8326328961720999     2.9545352528588658     1.6248208903074859
4      1          0.0000000000000003     2.9545352528588658     2.4372293856761602
ITEM: TIMESTEP energy, energy_weight, force_weight, nsims
18       -24057.9704894932983734    1    1   600
ITEM: NUMBER OF ATOMS
4         
ITEM: BOX BOUNDS xy xz yz pp pp pp
    0.0000000000000000      5.6727801092800005      0.0000000000000004
    0.0000000000000000      5.9090400552712934      0.0000000000000002
    0.0000000000000000      3.2496237217005017      0.0000000000000002
ITEM: ATOMS id type x y z
1      1          0.0000000000000000     0.0000000000000000     0.0000000000000000
2      1          2.8363900546399998     0.0000000000000000     0.8124078801993585
3      1          2.8363900546399998     2.9545200276356467     1.6248118608502509
4      1          0.0000000000000003     2.9545200276356467     2.4372158415011431
ITEM: TIMESTEP energy, energy_weight, force_weight, nsims
19       -24057.9755721739275032    1    1   600
ITEM: NUMBER OF ATOMS
4         
ITEM: BOX BOUNDS xy xz yz pp pp pp
    0.0000000000000000      5.6803473439407002      0.0000000000000004
    0.0000000000000000      5.9090778904391597      0.0000000000000002
    0.0000000000000000      3.2496471906056588      0.0000000000000002
ITEM: ATOMS id type x y z
1      1          0.0000000000000000     0.0000000000000000     0.0000000000000000
2      1          2.8401736719703496     0.0000000000000000     0.8124137474397292
3      1          2.8401736719703496     2.9545389452195798     1.6248235953028294
4      1          0.0000000000000003     2.9545389452195798     2.4372334431659297
ITEM: TIMESTEP energy, energy_weight, force_weight, nsims
20       -24057.9804506330256118    1    1   600
ITEM: NUMBER OF ATOMS
4         
ITEM: BOX BOUNDS xy xz yz pp pp pp
    0.0000000000000000      5.6878616608765000      0.0000000000000004
    0.0000000000000000      5.9090682887296477      0.0000000000000002
    0.0000000000000000      3.2496403148469093      0.0000000000000002
ITEM: ATOMS id type x y z
1      1          0.0000000000000000     0.0000000000000000     0.0000000000000000
2      1          2.8439308304382496     0.0000000000000000     0.8124120284959163
3      1          2.8439308304382496     2.9545341443648239     1.6248201574234546
4      1          0.0000000000000003     2.9545341443648239     2.4372282863509929
ITEM: TIMESTEP energy, energy_weight, force_weight, nsims
21       -24057.9851364354399266    1    1   600
ITEM: NUMBER OF ATOMS
4         
ITEM: BOX BOUNDS xy xz yz pp pp pp
    0.0000000000000000      5.6953759778123008      0.0000000000000004
    0.0000000000000000      5.9090721798757944      0.0000000000000002
    0.0000000000000000      3.2496448439162307      0.0000000000000002
ITEM: ATOMS id type x y z
1      1          0.0000000000000000     0.0000000000000000     0.0000000000000000
2      1          2.8476879889061499     0.0000000000000000     0.8124131607659640
3      1          2.8476879889061499     2.9545360899378972     1.6248224219581153
4      1          0.0000000000000003     2.9545360899378972     2.4372316831502667
ITEM: TIMESTEP energy, energy_weight, force_weight, nsims
22       -24057.9896177442096814    1    1   600
ITEM: NUMBER OF ATOMS
4         
ITEM: BOX BOUNDS xy xz yz pp pp pp
    0.0000000000000000      5.7028902947481006      0.0000000000000004
    0.0000000000000000      5.9090839962450117      0.0000000000000002
    0.0000000000000000      3.2496494622048355      0.0000000000000002
ITEM: ATOMS id type x y z
1      1          0.0000000000000000     0.0000000000000000     0.0000000000000000
2      1          2.8514451473740499     0.0000000000000000     0.8124143153408863
3      1          2.8514451473740499     2.9545419981225058     1.6248247311024178
4      1          0.0000000000000003     2.9545419981225058     2.4372351468639493
ITEM: TIMESTEP energy, energy_weight, force_weight, nsims
23       -24057.9939152400038438    1    1   600
ITEM: NUMBER OF ATOMS
4         
ITEM: BOX BOUNDS xy xz yz pp pp pp
    0.0000000000000000      5.7103516939590007      0.0000000000000004
    0.0000000000000000      5.9090548018536913      0.0000000000000002
    0.0000000000000000      3.2496298109431061      0.0000000000000002
ITEM: ATOMS id type x y z
1      1          0.0000000000000000     0.0000000000000000     0.0000000000000000
2      1          2.8551758469794999     0.0000000000000000     0.8124094025136631
3      1          2.8551758469794999     2.9545274009268456     1.6248149054715531
4      1          0.0000000000000003     2.9545274009268456     2.4372204084294431
ITEM: TIMESTEP energy, energy_weight, force_weight, nsims
24       -24057.9980196709366282    1    1   600
ITEM: NUMBER OF ATOMS
4         
ITEM: BOX BOUNDS xy xz yz pp pp pp
    0.0000000000000000      5.7178660108948005      0.0000000000000004
    0.0000000000000000      5.9090886038971533      0.0000000000000002
    0.0000000000000000      3.2496519435698739      0.0000000000000002
ITEM: ATOMS id type x y z
1      1          0.0000000000000000     0.0000000000000000     0.0000000000000000
2      1          2.8589330054473998     0.0000000000000000     0.8124149356836347
3      1          2.8589330054473998     2.9545443019485766     1.6248259717849369
4      1          0.0000000000000003     2.9545443019485766     2.4372370078862393
ITEM: TIMESTEP energy, energy_weight, force_weight, nsims
25       -24058.0019416494615143    1    1   600
ITEM: NUMBER OF ATOMS
4         
ITEM: BOX BOUNDS xy xz yz pp pp pp
    0.0000000000000000      5.7253274101057006      0.0000000000000004
    0.0000000000000000      5.9090760680056329      0.0000000000000002
    0.0000000000000000      3.2496443100293040      0.0000000000000002
ITEM: ATOMS id type x y z
1      1          0.0000000000000000     0.0000000000000000     0.0000000000000000
2      1          2.8626637050528498     0.0000000000000000     0.8124130272939121
3      1          2.8626637050528498     2.9545380340028164     1.6248221550146520
4      1          0.0000000000000003     2.9545380340028164     2.4372312827353921
ITEM: TIMESTEP energy, energy_weight, force_weight, nsims
26       -24058.0056768217509671    1    1   600
ITEM: NUMBER OF ATOMS
4         
ITEM: BOX BOUNDS xy xz yz pp pp pp
    0.0000000000000000      5.7327888093165997      0.0000000000000004
    0.0000000000000000      5.9090720652030848      0.0000000000000002
    0.0000000000000000      3.2496428021387334      0.0000000000000002
ITEM: ATOMS id type x y z
1      1          0.0000000000000000     0.0000000000000000     0.0000000000000000
2      1          2.8663944046582994     0.0000000000000000     0.8124126503203647
3      1          2.8663944046582994     2.9545360326015424     1.6248214010693667
4      1          0.0000000000000003     2.9545360326015424     2.4372301518183686
ITEM: TIMESTEP energy, energy_weight, force_weight, nsims
27       -24058.0092303579731379    1    1   600
ITEM: NUMBER OF ATOMS
4         
ITEM: BOX BOUNDS xy xz yz pp pp pp
    0.0000000000000000      5.7402502085275007      0.0000000000000004
    0.0000000000000000      5.9090824476607109      0.0000000000000002
    0.0000000000000000      3.2496474870507539      0.0000000000000002
ITEM: ATOMS id type x y z
1      1          0.0000000000000000     0.0000000000000000     0.0000000000000000
2      1          2.8701251042637499     0.0000000000000000     0.8124138215511808
3      1          2.8701251042637499     2.9545412238303554     1.6248237435253770
4      1          0.0000000000000003     2.9545412238303554     2.4372336654995732
ITEM: TIMESTEP energy, energy_weight, force_weight, nsims
28       -24058.0126124623966462    1    1   600
ITEM: NUMBER OF ATOMS
4         
ITEM: BOX BOUNDS xy xz yz pp pp pp
    0.0000000000000000      5.7476586900135000      0.0000000000000004
    0.0000000000000000      5.9090471983703887      0.0000000000000002
    0.0000000000000000      3.2496285131359022      0.0000000000000002
ITEM: ATOMS id type x y z
1      1          0.0000000000000000     0.0000000000000000     0.0000000000000000
2      1          2.8738293450067496     0.0000000000000000     0.8124090780610835
3      1          2.8738293450067496     2.9545235991851944     1.6248142565679511
4      1          0.0000000000000003     2.9545235991851944     2.4372194350748186
ITEM: TIMESTEP energy, energy_weight, force_weight, nsims
29       -24058.0158145634377433    1    1   600
ITEM: NUMBER OF ATOMS
4         
ITEM: BOX BOUNDS xy xz yz pp pp pp
    0.0000000000000000      5.7551200892244010      0.0000000000000004
    0.0000000000000000      5.9090753067312409      0.0000000000000002
    0.0000000000000000      3.2496458237408250      0.0000000000000002
ITEM: ATOMS id type x y z
1      1          0.0000000000000000     0.0000000000000000     0.0000000000000000
2      1          2.8775600446122001     0.0000000000000000     0.8124134057227006
3      1          2.8775600446122001     2.9545376533656205     1.6248229118704125
4      1          0.0000000000000003     2.9545376533656205     2.4372324180181244
ITEM: TIMESTEP energy, energy_weight, force_weight, nsims
30       -24058.0188457769108936    1    1   600
ITEM: NUMBER OF ATOMS
4         
ITEM: BOX BOUNDS xy xz yz pp pp pp
    0.0000000000000000      5.7625285707104004      0.0000000000000004
    0.0000000000000000      5.9090581472064230      0.0000000000000002
    0.0000000000000000      3.2496339242378620      0.0000000000000002
ITEM: ATOMS id type x y z
1      1          0.0000000000000000     0.0000000000000000     0.0000000000000000
2      1          2.8812642853551997     0.0000000000000000     0.8124104308398201
3      1          2.8812642853551997     2.9545290736032115     1.6248169621189310
4      1          0.0000000000000003     2.9545290736032115     2.4372234933980419
ITEM: TIMESTEP energy, energy_weight, force_weight, nsims
31       -24058.0217097763525089    1    1   600
ITEM: NUMBER OF ATOMS
4         
ITEM: BOX BOUNDS xy xz yz pp pp pp
    0.0000000000000000      5.7699370521964006      0.0000000000000004
    0.0000000000000000      5.9090502345248552      0.0000000000000002
    0.0000000000000000      3.2496285477970126      0.0000000000000002
ITEM: ATOMS id type x y z
1      1          0.0000000000000000     0.0000000000000000     0.0000000000000000
2      1          2.8849685260981999     0.0000000000000000     0.8124090867263819
3      1          2.8849685260981999     2.9545251172624276     1.6248142738985063
4      1          0.0000000000000003     2.9545251172624276     2.4372194610706308
ITEM: TIMESTEP energy, energy_weight, force_weight, nsims
32       -24058.0244106434765854    1    1   600
ITEM: NUMBER OF ATOMS
4         
ITEM: BOX BOUNDS xy xz yz pp pp pp
    0.0000000000000000      5.7773455336824009      0.0000000000000004
    0.0000000000000000      5.9090516798137571      0.0000000000000002
    0.0000000000000000      3.2496355384401423      0.0000000000000002
ITEM: ATOMS id type x y z
1      1          0.0000000000000000     0.0000000000000000     0.0000000000000000
2      1          2.8886727668412000     0.0000000000000000     0.8124108343913587
3      1          2.8886727668412000     2.9545258399068786     1.6248177692200712
4      1          0.0000000000000003     2.9545258399068786     2.4372247040487838
ITEM: TIMESTEP energy, energy_weight, force_weight, nsims
33       -24058.0269483782794850    1    1   600
ITEM: NUMBER OF ATOMS
4         
ITEM: BOX BOUNDS xy xz yz pp pp pp
    0.0000000000000000      5.7847540151684003      0.0000000000000004
    0.0000000000000000      5.9090683789543688      0.0000000000000002
    0.0000000000000000      3.2496376308069848      0.0000000000000002
ITEM: ATOMS id type x y z
1      1          0.0000000000000000     0.0000000000000000     0.0000000000000000
2      1          2.8923770075841997     0.0000000000000000     0.8124113574843247
3      1          2.8923770075841997     2.9545341894771844     1.6248188154034924
4      1          0.0000000000000003     2.9545341894771844     2.4372262733226600
ITEM: TIMESTEP energy, energy_weight, force_weight, nsims
34       -24058.0293329129199265    1    1   600
ITEM: NUMBER OF ATOMS
4         
ITEM: BOX BOUNDS xy xz yz pp pp pp
    0.0000000000000000      5.7921624966544005      0.0000000000000004
    0.0000000000000000      5.9090888809743616      0.0000000000000002
    0.0000000000000000      3.2496522236104743      0.0000000000000002
ITEM: ATOMS id type x y z
1      1          0.0000000000000000     0.0000000000000000     0.0000000000000000
2      1          2.8960812483271998     0.0000000000000000     0.8124150056939529
3      1          2.8960812483271998     2.9545444404871808     1.6248261118052372
4      1          0.0000000000000003     2.9545444404871808     2.4372372179165214
ITEM: TIMESTEP energy, energy_weight, force_weight, nsims
35       -24058.0315598935812886    1    1   600
ITEM: NUMBER OF ATOMS
4         
ITEM: BOX BOUNDS xy xz yz pp pp pp
    0.0000000000000000      5.7995180604155010      0.0000000000000004
    0.0000000000000000      5.9090651570586878      0.0000000000000002
    0.0000000000000000      3.2496381552745564      0.0000000000000002
ITEM: ATOMS id type x y z
1      1          0.0000000000000000     0.0000000000000000     0.0000000000000000
2      1          2.8997590302077501     0.0000000000000000     0.8124114886015323
3      1          2.8997590302077501     2.9545325785293439     1.6248190776372782
4      1          0.0000000000000003     2.9545325785293439     2.4372266666730242
ITEM: TIMESTEP energy, energy_weight, force_weight, nsims
36       -24058.0336287760292180    1    1   600
ITEM: NUMBER OF ATOMS
4         
ITEM: BOX BOUNDS xy xz yz pp pp pp
    0.0000000000000000      5.8068736241766006      0.0000000000000004
    0.0000000000000000      5.9090571793412350      0.0000000000000002
    0.0000000000000000      3.2496310038144598      0.0000000000000002
ITEM: ATOMS id type x y z
1      1          0.0000000000000000     0.0000000000000000     0.0000000000000000
2      1          2.9034368120882998     0.0000000000000000     0.8124097007322173
3      1          2.9034368120882998     2.9545285896706175     1.6248155019072299
4      1          0.0000000000000003     2.9545285896706175     2.4372213030822425
ITEM: TIMESTEP energy, energy_weight, force_weight, nsims
37       -24058.0355466352302756    1    1   600
ITEM: NUMBER OF ATOMS
4         
ITEM: BOX BOUNDS xy xz yz pp pp pp
    0.0000000000000000      5.8142291879377002      0.0000000000000004
    0.0000000000000000      5.9090534517637749      0.0000000000000002
    0.0000000000000000      3.2496308354302594      0.0000000000000002
ITEM: ATOMS id type x y z
1      1          0.0000000000000000     0.0000000000000000     0.0000000000000000
2      1          2.9071145939688496     0.0000000000000000     0.8124096586360662
3      1          2.9071145939688496     2.9545267258818875     1.6248154177151297
4      1          0.0000000000000003     2.9545267258818875     2.4372211767941931
ITEM: TIMESTEP energy, energy_weight, force_weight, nsims
38       -24058.0373224509421561    1    1   600
ITEM: NUMBER OF ATOMS
4         
ITEM: BOX BOUNDS xy xz yz pp pp pp
    0.0000000000000000      5.8215847516988006      0.0000000000000004
    0.0000000000000000      5.9090598841778261      0.0000000000000002
    0.0000000000000000      3.2496377163220282      0.0000000000000002
ITEM: ATOMS id type x y z
1      1          0.0000000000000000     0.0000000000000000     0.0000000000000000
2      1          2.9107923758493999     0.0000000000000000     0.8124113788631369
3      1          2.9107923758493999     2.9545299420889131     1.6248188581610141
4      1          0.0000000000000003     2.9545299420889131     2.4372263374588914
ITEM: TIMESTEP energy, energy_weight, force_weight, nsims
39       -24058.0389491481982986    1    1   600
ITEM: NUMBER OF ATOMS
4         
ITEM: BOX BOUNDS xy xz yz pp pp pp
    0.0000000000000000      5.8289403154599002      0.0000000000000004
    0.0000000000000000      5.9090765869168429      0.0000000000000002
    0.0000000000000000      3.2496458837495252      0.0000000000000002
ITEM: ATOMS id type x y z
1      1          0.0000000000000000     0.0000000000000000     0.0000000000000000
2      1          2.9144701577299497     0.0000000000000000     0.8124134207249116
3      1          2.9144701577299497     2.9545382934584214     1.6248229418747626
4      1          0.0000000000000003     2.9545382934584214     2.4372324630246136
ITEM: TIMESTEP energy, energy_weight, force_weight, nsims
40       -24058.0404316250605916    1    1   600
ITEM: NUMBER OF ATOMS
4         
ITEM: BOX BOUNDS xy xz yz pp pp pp
    0.0000000000000000      5.8362429614961009      0.0000000000000004
    0.0000000000000000      5.9090442561978023      0.0000000000000002
    0.0000000000000000      3.2496317534469514      0.0000000000000002
ITEM: ATOMS id type x y z
1      1          0.0000000000000000     0.0000000000000000     0.0000000000000000
2      1          2.9181214807480500     0.0000000000000000     0.8124098881407900
3      1          2.9181214807480500     2.9545221280989011     1.6248158767234757
4      1          0.0000000000000003     2.9545221280989011     2.4372218653061615
ITEM: TIMESTEP energy, energy_weight, force_weight, nsims
41       -24058.0417754598602187    1    1   600
ITEM: NUMBER OF ATOMS
4         