ITEM: TIMESTEP energy, energy_weight, force_weight, nsims
1        -12028.9489918879535253    1    1   598
ITEM: NUMBER OF ATOMS
2         
ITEM: BOX BOUNDS xy xz yz pp pp pp
    0.0000000000000000      3.5716289244006001      0.0000000000000002
    0.0000000000000000      3.8073707199267370      0.0000000000000002
    0.0000000000000000      3.8073707199267366      0.0000000000000002
ITEM: ATOMS id type x y z
1      1          0.0000000000000000     0.0000000000000000     0.0000000000000000
2      1          1.7858144622003003     1.9036853599633685     1.9036853599633683
ITEM: TIMESTEP energy, energy_weight, force_weight, nsims
2        -12028.9505969521542283    1    1   598
ITEM: NUMBER OF ATOMS
2         
ITEM: BOX BOUNDS xy xz yz pp pp pp
    0.0000000000000000      3.5766031905412001      0.0000000000000002
    0.0000000000000000      3.8073763582044906      0.0000000000000002
    0.0000000000000000      3.8073763582044902      0.0000000000000002
ITEM: ATOMS id type x y z
1      1          0.0000000000000000     0.0000000000000000     0.0000000000000000
2      1          1.7883015952706003     1.9036881791022453     1.9036881791022451
ITEM: TIMESTEP energy, energy_weight, force_weight, nsims
3        -12028.9521662333700078    1    1   598
ITEM: NUMBER OF ATOMS
2         
ITEM: BOX BOUNDS xy xz yz pp pp pp
    0.0000000000000000      3.5815774566818002      0.0000000000000002
    0.0000000000000000      3.8073923337481306      0.0000000000000002
    0.0000000000000000      3.8073923337481301      0.0000000000000002
ITEM: ATOMS id type x y z
1      1          0.0000000000000000     0.0000000000000000     0.0000000000000000
2      1          1.7907887283409003     1.9036961668740653     1.9036961668740651
ITEM: TIMESTEP energy, energy_weight, force_weight, nsims
4        -12028.9536904797241732    1    1   598
ITEM: NUMBER OF ATOMS
2         
ITEM: BOX BOUNDS xy xz yz pp pp pp
    0.0000000000000000      3.5864988050975000      0.0000000000000002
    0.0000000000000000      3.8073589880142094      0.0000000000000002
    0.0000000000000000      3.8073589880142089      0.0000000000000002
ITEM: ATOMS id type x y z
1      1          0.0000000000000000     0.0000000000000000     0.0000000000000000
2      1          1.7932494025487502     1.9036794940071047     1.9036794940071045
ITEM: TIMESTEP energy, energy_weight, force_weight, nsims
5        -12028.9551733647567744    1    1   598
ITEM: NUMBER OF ATOMS
2         
ITEM: BOX BOUNDS xy xz yz pp pp pp
    0.0000000000000000      3.5914730712381004      0.0000000000000002
    0.0000000000000000      3.8073888408078638      0.0000000000000002
    0.0000000000000000      3.8073888408078633      0.0000000000000002
ITEM: ATOMS id type x y z
1      1          0.0000000000000000     0.0000000000000000     0.0000000000000000
2      1          1.7957365356190504     1.9036944204039319     1.9036944204039317
ITEM: TIMESTEP energy, energy_weight, force_weight, nsims
6        -12028.9566094461861212    1    1   598
ITEM: NUMBER OF ATOMS
2         
ITEM: BOX BOUNDS xy xz yz pp pp pp
    0.0000000000000000      3.5963944196538002      0.0000000000000002
    0.0000000000000000      3.8073733018883709      0.0000000000000002
    0.0000000000000000      3.8073733018883704      0.0000000000000002
ITEM: ATOMS id type x y z
1      1          0.0000000000000000     0.0000000000000000     0.0000000000000000
2      1          1.7981972098269003     1.9036866509441854     1.9036866509441852
ITEM: TIMESTEP energy, energy_weight, force_weight, nsims
7        -12028.9580017172702355    1    1   598
ITEM: NUMBER OF ATOMS
2         
ITEM: BOX BOUNDS xy xz yz pp pp pp
    0.0000000000000000      3.6013157680695005      0.0000000000000002
    0.0000000000000000      3.8073614484238294      0.0000000000000002
    0.0000000000000000      3.8073614484238290      0.0000000000000002
ITEM: ATOMS id type x y z
1      1          0.0000000000000000     0.0000000000000000     0.0000000000000000
2      1          1.8006578840347505     1.9036807242119147     1.9036807242119145
ITEM: TIMESTEP energy, energy_weight, force_weight, nsims
8        -12028.9593523549174279    1    1   598
ITEM: NUMBER OF ATOMS
2         
ITEM: BOX BOUNDS xy xz yz pp pp pp
    0.0000000000000000      3.6062371164852003      0.0000000000000002
    0.0000000000000000      3.8073569604715800      0.0000000000000002
    0.0000000000000000      3.8073569604715796      0.0000000000000002
ITEM: ATOMS id type x y z
1      1          0.0000000000000000     0.0000000000000000     0.0000000000000000
2      1          1.8031185582426004     1.9036784802357900     1.9036784802357898
ITEM: TIMESTEP energy, energy_weight, force_weight, nsims
9        -12028.9606515630257491    1    1   598
ITEM: NUMBER OF ATOMS
2         
ITEM: BOX BOUNDS xy xz yz pp pp pp
    0.0000000000000000      3.6111584649009001      0.0000000000000002
    0.0000000000000000      3.8073599266158955      0.0000000000000002
    0.0000000000000000      3.8073599266158951      0.0000000000000002
ITEM: ATOMS id type x y z
1      1          0.0000000000000000     0.0000000000000000     0.0000000000000000
2      1          1.8055792324504503     1.9036799633079478     1.9036799633079475
ITEM: TIMESTEP energy, energy_weight, force_weight, nsims
10       -12028.9619007021647121    1    1   598
ITEM: NUMBER OF ATOMS
2         
ITEM: BOX BOUNDS xy xz yz pp pp pp
    0.0000000000000000      3.6160798133166003      0.0000000000000002
    0.0000000000000000      3.8073668193612349      0.0000000000000002
    0.0000000000000000      3.8073668193612344      0.0000000000000002
ITEM: ATOMS id type x y z
1      1          0.0000000000000000     0.0000000000000000     0.0000000000000000
2      1          1.8080399066583004     1.9036834096806174     1.9036834096806172
ITEM: TIMESTEP energy, energy_weight, force_weight, nsims
11       -12028.9631109290075983    1    1   598
ITEM: NUMBER OF ATOMS
2         
ITEM: BOX BOUNDS xy xz yz pp pp pp
    0.0000000000000000      3.6210011617323001      0.0000000000000002
    0.0000000000000000      3.8073849545301472      0.0000000000000002
    0.0000000000000000      3.8073849545301468      0.0000000000000002
ITEM: ATOMS id type x y z
1      1          0.0000000000000000     0.0000000000000000     0.0000000000000000
2      1          1.8105005808661503     1.9036924772650736     1.9036924772650734
ITEM: TIMESTEP energy, energy_weight, force_weight, nsims
12       -12028.9642663248869212    1    1   598
ITEM: NUMBER OF ATOMS
2         
ITEM: BOX BOUNDS xy xz yz pp pp pp
    0.0000000000000000      3.6258695924231001      0.0000000000000002
    0.0000000000000000      3.8073552431326529      0.0000000000000002
    0.0000000000000000      3.8073552431326525      0.0000000000000002
ITEM: ATOMS id type x y z
1      1          0.0000000000000000     0.0000000000000000     0.0000000000000000
2      1          1.8129347962115503     1.9036776215663265     1.9036776215663263
ITEM: TIMESTEP energy, energy_weight, force_weight, nsims
13       -12028.9653838969261415    1    1   598
ITEM: NUMBER OF ATOMS
2         
ITEM: BOX BOUNDS xy xz yz pp pp pp
    0.0000000000000000      3.6307909408388004      0.0000000000000002
    0.0000000000000000      3.8073853506193176      0.0000000000000002
    0.0000000000000000      3.8073853506193172      0.0000000000000002
ITEM: ATOMS id type x y z
1      1          0.0000000000000000     0.0000000000000000     0.0000000000000000
2      1          1.8153954704194004     1.9036926753096588     1.9036926753096586
ITEM: TIMESTEP energy, energy_weight, force_weight, nsims
14       -12028.9664451413755160    1    1   598
ITEM: NUMBER OF ATOMS
2         
ITEM: BOX BOUNDS xy xz yz pp pp pp
    0.0000000000000000      3.6356593715296004      0.0000000000000002
    0.0000000000000000      3.8073679279875718      0.0000000000000002
    0.0000000000000000      3.8073679279875714      0.0000000000000002
ITEM: ATOMS id type x y z
1      1          0.0000000000000000     0.0000000000000000     0.0000000000000000
2      1          1.8178296857648004     1.9036839639937859     1.9036839639937857
ITEM: TIMESTEP energy, energy_weight, force_weight, nsims
15       -12028.9674612149083259    1    1   598
ITEM: NUMBER OF ATOMS
2         
ITEM: BOX BOUNDS xy xz yz pp pp pp
    0.0000000000000000      3.6405278022204000      0.0000000000000002
    0.0000000000000000      3.8073549887571501      0.0000000000000002
    0.0000000000000000      3.8073549887571496      0.0000000000000002
ITEM: ATOMS id type x y z
1      1          0.0000000000000000     0.0000000000000000     0.0000000000000000
2      1          1.8202639011102002     1.9036774943785750     1.9036774943785748
ITEM: TIMESTEP energy, energy_weight, force_weight, nsims
16       -12028.9684288521548297    1    1   598
ITEM: NUMBER OF ATOMS
2         
ITEM: BOX BOUNDS xy xz yz pp pp pp
    0.0000000000000000      3.6453962329112000      0.0000000000000002
    0.0000000000000000      3.8073502513507456      0.0000000000000002
    0.0000000000000000      3.8073502513507451      0.0000000000000002
ITEM: ATOMS id type x y z
1      1          0.0000000000000000     0.0000000000000000     0.0000000000000000
2      1          1.8226981164556002     1.9036751256753728     1.9036751256753726
ITEM: TIMESTEP energy, energy_weight, force_weight, nsims
17       -12028.9693441074632574    1    1   598
ITEM: NUMBER OF ATOMS
2         
ITEM: BOX BOUNDS xy xz yz pp pp pp
    0.0000000000000000      3.6502646636020000      0.0000000000000002
    0.0000000000000000      3.8073538034001122      0.0000000000000002
    0.0000000000000000      3.8073538034001118      0.0000000000000002
ITEM: ATOMS id type x y z
1      1          0.0000000000000000     0.0000000000000000     0.0000000000000000
2      1          1.8251323318010002     1.9036769017000561     1.9036769017000559
ITEM: TIMESTEP energy, energy_weight, force_weight, nsims
18       -12028.9702170490509161    1    1   598
ITEM: NUMBER OF ATOMS
2         
ITEM: BOX BOUNDS xy xz yz pp pp pp
    0.0000000000000000      3.6551330942928000      0.0000000000000002
    0.0000000000000000      3.8073620774039063      0.0000000000000002
    0.0000000000000000      3.8073620774039059      0.0000000000000002
ITEM: ATOMS id type x y z
1      1          0.0000000000000000     0.0000000000000000     0.0000000000000000
2      1          1.8275665471464002     1.9036810387019532     1.9036810387019529
ITEM: TIMESTEP energy, energy_weight, force_weight, nsims
19       -12028.9710376087023178    1    1   598
ITEM: NUMBER OF ATOMS
2         
ITEM: BOX BOUNDS xy xz yz pp pp pp
    0.0000000000000000      3.6600015249836004      0.0000000000000002
    0.0000000000000000      3.8073788063901155      0.0000000000000002
    0.0000000000000000      3.8073788063901151      0.0000000000000002
ITEM: ATOMS id type x y z
1      1          0.0000000000000000     0.0000000000000000     0.0000000000000000
2      1          1.8300007624918004     1.9036894031950577     1.9036894031950575
ITEM: TIMESTEP energy, energy_weight, force_weight, nsims
20       -12028.9718117729207734    1    1   598
ITEM: NUMBER OF ATOMS
2         
ITEM: BOX BOUNDS xy xz yz pp pp pp
    0.0000000000000000      3.6648170379495002      0.0000000000000002
    0.0000000000000000      3.8073454373723945      0.0000000000000002
    0.0000000000000000      3.8073454373723941      0.0000000000000002
ITEM: ATOMS id type x y z
1      1          0.0000000000000000     0.0000000000000000     0.0000000000000000
2      1          1.8324085189747503     1.9036727186861973     1.9036727186861970
ITEM: TIMESTEP energy, energy_weight, force_weight, nsims
21       -12028.9725423989075352    1    1   598
ITEM: NUMBER OF ATOMS
2         
ITEM: BOX BOUNDS xy xz yz pp pp pp
    0.0000000000000000      3.6696854686403002      0.0000000000000002
    0.0000000000000000      3.8073757371091528      0.0000000000000002
    0.0000000000000000      3.8073757371091523      0.0000000000000002
ITEM: ATOMS id type x y z
1      1          0.0000000000000000     0.0000000000000000     0.0000000000000000
2      1          1.8348427343201503     1.9036878685545764     1.9036878685545762
ITEM: TIMESTEP energy, energy_weight, force_weight, nsims
22       -12028.9732239083223249    1    1   598
ITEM: NUMBER OF ATOMS
2         
ITEM: BOX BOUNDS xy xz yz pp pp pp
    0.0000000000000000      3.6745009816062004      0.0000000000000002
    0.0000000000000000      3.8073562390971545      0.0000000000000002
    0.0000000000000000      3.8073562390971540      0.0000000000000002
ITEM: ATOMS id type x y z
1      1          0.0000000000000000     0.0000000000000000     0.0000000000000000
2      1          1.8372504908031004     1.9036781195485772     1.9036781195485770
ITEM: TIMESTEP energy, energy_weight, force_weight, nsims
23       -12028.9738680020691390    1    1   598
ITEM: NUMBER OF ATOMS
2         
ITEM: BOX BOUNDS xy xz yz pp pp pp
    0.0000000000000000      3.6793164945721002      0.0000000000000002
    0.0000000000000000      3.8073456706337252      0.0000000000000002
    0.0000000000000000      3.8073456706337248      0.0000000000000002
ITEM: ATOMS id type x y z
1      1          0.0000000000000000     0.0000000000000000     0.0000000000000000
2      1          1.8396582472860503     1.9036728353168626     1.9036728353168624
ITEM: TIMESTEP energy, energy_weight, force_weight, nsims
24       -12028.9744608023338515    1    1   598
ITEM: NUMBER OF ATOMS
2         
ITEM: BOX BOUNDS xy xz yz pp pp pp
    0.0000000000000000      3.6841849252629002      0.0000000000000002
    0.0000000000000000      3.8073951217184669      0.0000000000000002
    0.0000000000000000      3.8073951217184665      0.0000000000000002
ITEM: ATOMS id type x y z
1      1          0.0000000000000000     0.0000000000000000     0.0000000000000000
2      1          1.8420924626314503     1.9036975608592335     1.9036975608592333
ITEM: TIMESTEP energy, energy_weight, force_weight, nsims
25       -12028.9750227176646149    1    1   598
ITEM: NUMBER OF ATOMS
2         
ITEM: BOX BOUNDS xy xz yz pp pp pp
    0.0000000000000000      3.6890004382288000      0.0000000000000002
    0.0000000000000000      3.8073952182933155      0.0000000000000002
    0.0000000000000000      3.8073952182933151      0.0000000000000002
ITEM: ATOMS id type x y z
1      1          0.0000000000000000     0.0000000000000000     0.0000000000000000
2      1          1.8445002191144002     1.9036976091466578     1.9036976091466575
ITEM: TIMESTEP energy, energy_weight, force_weight, nsims
26       -12028.9755413668754045    1    1   598
ITEM: NUMBER OF ATOMS
2         
ITEM: BOX BOUNDS xy xz yz pp pp pp
    0.0000000000000000      3.6937630334698000      0.0000000000000002
    0.0000000000000000      3.8073462467489967      0.0000000000000002
    0.0000000000000000      3.8073462467489962      0.0000000000000002
ITEM: ATOMS id type x y z
1      1          0.0000000000000000     0.0000000000000000     0.0000000000000000
2      1          1.8468815167349002     1.9036731233744983     1.9036731233744981
ITEM: TIMESTEP energy, energy_weight, force_weight, nsims
27       -12028.9760119879720150    1    1   598
ITEM: NUMBER OF ATOMS
2         
ITEM: BOX BOUNDS xy xz yz pp pp pp
    0.0000000000000000      3.6985785464357002      0.0000000000000002
    0.0000000000000000      3.8073611386434667      0.0000000000000002
    0.0000000000000000      3.8073611386434663      0.0000000000000002
ITEM: ATOMS id type x y z
1      1          0.0000000000000000     0.0000000000000000     0.0000000000000000
2      1          1.8492892732178503     1.9036805693217334     1.9036805693217331
ITEM: TIMESTEP energy, energy_weight, force_weight, nsims
28       -12028.9764510438471916    1    1   598
ITEM: NUMBER OF ATOMS
2         
ITEM: BOX BOUNDS xy xz yz pp pp pp
    0.0000000000000000      3.7033940594016004      0.0000000000000002
    0.0000000000000000      3.8073816611955373      0.0000000000000002
    0.0000000000000000      3.8073816611955369      0.0000000000000002
ITEM: ATOMS id type x y z
1      1          0.0000000000000000     0.0000000000000000     0.0000000000000000
2      1          1.8516970297008004     1.9036908305977687     1.9036908305977684
ITEM: TIMESTEP energy, energy_weight, force_weight, nsims
29       -12028.9768612556435983    1    1   598
ITEM: NUMBER OF ATOMS
2         
ITEM: BOX BOUNDS xy xz yz pp pp pp
    0.0000000000000000      3.7081566546425999      0.0000000000000002
    0.0000000000000000      3.8073535533109442      0.0000000000000002
    0.0000000000000000      3.8073535533109437      0.0000000000000002
ITEM: ATOMS id type x y z
1      1          0.0000000000000000     0.0000000000000000     0.0000000000000000
2      1          1.8540783273213002     1.9036767766554721     1.9036767766554719
ITEM: TIMESTEP energy, energy_weight, force_weight, nsims
30       -12028.9772321469736198    1    1   598
ITEM: NUMBER OF ATOMS
2         
ITEM: BOX BOUNDS xy xz yz pp pp pp
    0.0000000000000000      3.7129721676085001      0.0000000000000002
    0.0000000000000000      3.8073856238864487      0.0000000000000002
    0.0000000000000000      3.8073856238864483      0.0000000000000002
ITEM: ATOMS id type x y z
1      1          0.0000000000000000     0.0000000000000000     0.0000000000000000
2      1          1.8564860838042503     1.9036928119432244     1.9036928119432242
ITEM: TIMESTEP energy, energy_weight, force_weight, nsims
31       -12028.9775725615381816    1    1   598
ITEM: NUMBER OF ATOMS
2         
ITEM: BOX BOUNDS xy xz yz pp pp pp
    0.0000000000000000      3.7177347628495001      0.0000000000000002
    0.0000000000000000      3.8073693479818020      0.0000000000000002
    0.0000000000000000      3.8073693479818016      0.0000000000000002
ITEM: ATOMS id type x y z
1      1          0.0000000000000000     0.0000000000000000     0.0000000000000000
2      1          1.8588673814247503     1.9036846739909010     1.9036846739909008
ITEM: TIMESTEP energy, energy_weight, force_weight, nsims
32       -12028.9778823632841522    1    1   598
ITEM: NUMBER OF ATOMS
2         
ITEM: BOX BOUNDS xy xz yz pp pp pp
    0.0000000000000000      3.7224973580905005      0.0000000000000002
    0.0000000000000000      3.8073591303628893      0.0000000000000002
    0.0000000000000000      3.8073591303628889      0.0000000000000002
ITEM: ATOMS id type x y z
1      1          0.0000000000000000     0.0000000000000000     0.0000000000000000
2      1          1.8612486790452505     1.9036795651814447     1.9036795651814444
ITEM: TIMESTEP energy, energy_weight, force_weight, nsims
33       -12028.9781671305445343    1    1   598
ITEM: NUMBER OF ATOMS
2         
ITEM: BOX BOUNDS xy xz yz pp pp pp
    0.0000000000000000      3.7272599533315001      0.0000000000000002
    0.0000000000000000      3.8073587697285940      0.0000000000000002
    0.0000000000000000      3.8073587697285936      0.0000000000000002
ITEM: ATOMS id type x y z
1      1          0.0000000000000000     0.0000000000000000     0.0000000000000000
2      1          1.8636299766657503     1.9036793848642970     1.9036793848642968
ITEM: TIMESTEP energy, energy_weight, force_weight, nsims
34       -12028.9784291762898647    1    1   598
ITEM: NUMBER OF ATOMS
2         
ITEM: BOX BOUNDS xy xz yz pp pp pp
    0.0000000000000000      3.7320225485725005      0.0000000000000002
    0.0000000000000000      3.8073608877605332      0.0000000000000002
    0.0000000000000000      3.8073608877605327      0.0000000000000002
ITEM: ATOMS id type x y z
1      1          0.0000000000000000     0.0000000000000000     0.0000000000000000
2      1          1.8660112742862505     1.9036804438802666     1.9036804438802664
ITEM: TIMESTEP energy, energy_weight, force_weight, nsims
35       -12028.9786630582384532    1    1   598
ITEM: NUMBER OF ATOMS
2         
ITEM: BOX BOUNDS xy xz yz pp pp pp
    0.0000000000000000      3.7367851438135000      0.0000000000000002
    0.0000000000000000      3.8073692783949928      0.0000000000000002
    0.0000000000000000      3.8073692783949924      0.0000000000000002
ITEM: ATOMS id type x y z
1      1          0.0000000000000000     0.0000000000000000     0.0000000000000000
2      1          1.8683925719067502     1.9036846391974964     1.9036846391974962
ITEM: TIMESTEP energy, energy_weight, force_weight, nsims
36       -12028.9788763955857576    1    1   598
ITEM: NUMBER OF ATOMS
2         
ITEM: BOX BOUNDS xy xz yz pp pp pp
    0.0000000000000000      3.7415477390545000      0.0000000000000002
    0.0000000000000000      3.8073877546186425      0.0000000000000002
    0.0000000000000000      3.8073877546186421      0.0000000000000002
ITEM: ATOMS id type x y z
1      1          0.0000000000000000     0.0000000000000000     0.0000000000000000
2      1          1.8707738695272502     1.9036938773093213     1.9036938773093210
ITEM: TIMESTEP energy, energy_weight, force_weight, nsims
37       -12028.9790663311287062    1    1   598
ITEM: NUMBER OF ATOMS
2         
ITEM: BOX BOUNDS xy xz yz pp pp pp
    0.0000000000000000      3.7462574165706002      0.0000000000000002
    0.0000000000000000      3.8073551287774494      0.0000000000000002
    0.0000000000000000      3.8073551287774490      0.0000000000000002
ITEM: ATOMS id type x y z
1      1          0.0000000000000000     0.0000000000000000     0.0000000000000000
2      1          1.8731287082853003     1.9036775643887247     1.9036775643887245
ITEM: TIMESTEP energy, energy_weight, force_weight, nsims
38       -12028.9792433412603714    1    1   598
ITEM: NUMBER OF ATOMS
2         
ITEM: BOX BOUNDS xy xz yz pp pp pp
    0.0000000000000000      3.7510200118116002      0.0000000000000002
    0.0000000000000000      3.8073828385090813      0.0000000000000002
    0.0000000000000000      3.8073828385090809      0.0000000000000002
ITEM: ATOMS id type x y z
1      1          0.0000000000000000     0.0000000000000000     0.0000000000000000
2      1          1.8755100059058003     1.9036914192545407     1.9036914192545404
ITEM: TIMESTEP energy, energy_weight, force_weight, nsims
39       -12028.9794049769534467    1    1   598
ITEM: NUMBER OF ATOMS
2         
ITEM: BOX BOUNDS xy xz yz pp pp pp
    0.0000000000000000      3.7557296893276999      0.0000000000000002
    0.0000000000000000      3.8073634610965779      0.0000000000000002
    0.0000000000000000      3.8073634610965774      0.0000000000000002
ITEM: ATOMS id type x y z
1      1          0.0000000000000000     0.0000000000000000     0.0000000000000000
2      1          1.8778648446638502     1.9036817305482889     1.9036817305482887
ITEM: TIMESTEP energy, energy_weight, force_weight, nsims
40       -12028.9795403536500089    1    1   598
ITEM: NUMBER OF ATOMS
2         
ITEM: BOX BOUNDS xy xz yz pp pp pp
    0.0000000000000000      3.7604393668438005      0.0000000000000002
    0.0000000000000000      3.8073470875058102      0.0000000000000002
    0.0000000000000000      3.8073470875058097      0.0000000000000002
ITEM: ATOMS id type x y z
1      1          0.0000000000000000     0.0000000000000000     0.0000000000000000
2      1          1.8802196834219005     1.9036735437529051     1.9036735437529049
ITEM: TIMESTEP energy, energy_weight, force_weight, nsims
41       -12028.9796628049334686    1    1   598
ITEM: NUMBER OF ATOMS
2         
ITEM: BOX BOUNDS xy xz yz pp pp pp
    0.0000000000000000      3.7652019620848001      0.0000000000000002
    0.0000000000000000      3.8073948152719228      0.0000000000000002
    0.0000000000000000      3.8073948152719224      0.0000000000000002
ITEM: ATOMS id type x y z
1      1          0.0000000000000000     0.0000000000000000     0.0000000000000000
2      1          1.8826009810424003     1.9036974076359614     1.9036974076359612
ITEM: TIMESTEP energy, energy_weight, force_weight, nsims
42       -12028.9797702899468277    1    1   598
ITEM: NUMBER OF ATOMS
2         
ITEM: BOX BOUNDS xy xz yz pp pp pp
    0.0000000000000000      3.7699116396009003      0.0000000000000002
    0.0000000000000000      3.8073921011218119      0.0000000000000002
    0.0000000000000000      3.8073921011218115      0.0000000000000002
ITEM: ATOMS id type x y z
1      1          0.0000000000000000     0.0000000000000000     0.0000000000000000
2      1          1.8849558198004503     1.9036960505609060     1.9036960505609057
ITEM: TIMESTEP energy, energy_weight, force_weight, nsims
43       -12028.9798683870303648    1    1   598
ITEM: NUMBER OF ATOMS
2         
ITEM: BOX BOUNDS xy xz yz pp pp pp
    0.0000000000000000      3.7745683993921002      0.0000000000000002
    0.0000000000000000      3.8073429768040219      0.0000000000000002
    0.0000000000000000      3.8073429768040215      0.0000000000000002
ITEM: ATOMS id type x y z
1      1          0.0000000000000000     0.0000000000000000     0.0000000000000000
2      1          1.8872841996960503     1.9036714884020109     1.9036714884020107
ITEM: TIMESTEP energy, energy_weight, force_weight, nsims
44       -12028.9799535587007995    1    1   598
ITEM: NUMBER OF ATOMS
2         
ITEM: BOX BOUNDS xy xz yz pp pp pp
    0.0000000000000000      3.7792780769081999      0.0000000000000002
    0.0000000000000000      3.8073543337415505      0.0000000000000002
    0.0000000000000000      3.8073543337415501      0.0000000000000002
ITEM: ATOMS id type x y z
1      1          0.0000000000000000     0.0000000000000000     0.0000000000000000
2      1          1.8896390384541002     1.9036771668707753     1.9036771668707750
ITEM: TIMESTEP energy, energy_weight, force_weight, nsims
45       -12028.9800282539836189    1    1   598
ITEM: NUMBER OF ATOMS
2         
ITEM: BOX BOUNDS xy xz yz pp pp pp
    0.0000000000000000      3.7839877544243001      0.0000000000000002
    0.0000000000000000      3.8073690147588874      0.0000000000000002
    0.0000000000000000      3.8073690147588870      0.0000000000000002
ITEM: ATOMS id type x y z
1      1          0.0000000000000000     0.0000000000000000     0.0000000000000000
2      1          1.8919938772121503     1.9036845073794437     1.9036845073794435
ITEM: TIMESTEP energy, energy_weight, force_weight, nsims
46       -12028.9800904320236441    1    1   598
ITEM: NUMBER OF ATOMS
2         
ITEM: BOX BOUNDS xy xz yz pp pp pp
    0.0000000000000000      3.7886974319404003      0.0000000000000002
    0.0000000000000000      3.8073908650695940      0.0000000000000002
    0.0000000000000000      3.8073908650695936      0.0000000000000002
ITEM: ATOMS id type x y z
1      1          0.0000000000000000     0.0000000000000000     0.0000000000000000
2      1          1.8943487159702004     1.9036954325347970     1.9036954325347968
ITEM: TIMESTEP energy, energy_weight, force_weight, nsims
47       -12028.9801342423706956    1    1   598
ITEM: NUMBER OF ATOMS
2         
ITEM: BOX BOUNDS xy xz yz pp pp pp
    0.0000000000000000      3.7933541917316003      0.0000000000000002
    0.0000000000000000      3.8073668421158571      0.0000000000000002
    0.0000000000000000      3.8073668421158566      0.0000000000000002
ITEM: ATOMS id type x y z
1      1          0.0000000000000000     0.0000000000000000     0.0000000000000000
2      1          1.8966770958658004     1.9036834210579285     1.9036834210579283
ITEM: TIMESTEP energy, energy_weight, force_weight, nsims
48       -12028.9801791411737213    1    1   598
ITEM: NUMBER OF ATOMS
2         
ITEM: BOX BOUNDS xy xz yz pp pp pp
    0.0000000000000000      3.7980109515228002      0.0000000000000002
    0.0000000000000000      3.8073464624416431      0.0000000000000002
    0.0000000000000000      3.8073464624416427      0.0000000000000002
ITEM: ATOMS id type x y z
1      1          0.0000000000000000     0.0000000000000000     0.0000000000000000
2      1          1.8990054757614003     1.9036732312208215     1.9036732312208213
ITEM: TIMESTEP energy, energy_weight, force_weight, nsims
49       -12028.9802067607415665    1    1   598
ITEM: NUMBER OF ATOMS
2         
ITEM: BOX BOUNDS xy xz yz pp pp pp
    0.0000000000000000      3.8027206290389000      0.0000000000000002
    0.0000000000000000      3.8073865672507310      0.0000000000000002
    0.0000000000000000      3.8073865672507305      0.0000000000000002
ITEM: ATOMS id type x y z
1      1          0.0000000000000000     0.0000000000000000     0.0000000000000000
2      1          1.9013603145194502     1.9036932836253655     1.9036932836253653
ITEM: TIMESTEP energy, energy_weight, force_weight, nsims
50       -12028.9802307067711808    1    1   598
ITEM: NUMBER OF ATOMS
2         
ITEM: BOX BOUNDS xy xz yz pp pp pp
    0.0000000000000000      3.8120341486213003      0.0000000000000002
    0.0000000000000000      3.8073758428916857      0.0000000000000002
    0.0000000000000000      3.8073758428916853      0.0000000000000002
ITEM: ATOMS id type x y z
1      1          0.0000000000000000     0.0000000000000000     0.0000000000000000
2      1          1.9060170743106504     1.9036879214458429     1.9036879214458426
ITEM: TIMESTEP energy, energy_weight, force_weight, nsims
51       -12028.9802281216871052    1    1   598
ITEM: NUMBER OF ATOMS
2         
ITEM: BOX BOUNDS xy xz yz pp pp pp
    0.0000000000000000      3.8166909084125002      0.0000000000000002
    0.0000000000000000      3.8073781825959738      0.0000000000000002
    0.0000000000000000      3.8073781825959734      0.0000000000000002
ITEM: ATOMS id type x y z
1      1          0.0000000000000000     0.0000000000000000     0.0000000000000000
2      1          1.9083454542062503     1.9036890912979869     1.9036890912979867
ITEM: TIMESTEP energy, energy_weight, force_weight, nsims
52       -12028.9802157405028993    1    1   598
ITEM: NUMBER OF ATOMS
2         
ITEM: BOX BOUNDS xy xz yz pp pp pp
    0.0000000000000000      3.8213476682037002      0.0000000000000002
    0.0000000000000000      3.8073882851717520      0.0000000000000002
    0.0000000000000000      3.8073882851717515      0.0000000000000002
ITEM: ATOMS id type x y z