ITEM: TIMESTEP energy, energy_weight, force_weight, nsims
1        -12028.9473559388188733    1    1   598
ITEM: NUMBER OF ATOMS
2         
ITEM: BOX BOUNDS xy xz yz pp pp pp
    0.0000000000000000      3.7805481023057999      0.0000000000000002
    0.0000000000000000      4.0300793992503916      0.0000000000000002
    0.0000000000000000      3.4199443021154630      0.0000000000000002
ITEM: ATOMS id type x y z
1      1          0.0000000000000000     0.0000000000000000     0.0000000000000000
2      1          1.8902740511528999     2.0150396996251958     1.7099721510577315
ITEM: TIMESTEP energy, energy_weight, force_weight, nsims
2        -12028.9491638639774465    1    1   598
ITEM: NUMBER OF ATOMS
2         
ITEM: BOX BOUNDS xy xz yz pp pp pp
    0.0000000000000000      3.7857869570709002      0.0000000000000002
    0.0000000000000000      4.0300572889019852      0.0000000000000002
    0.0000000000000000      3.4199285055395681      0.0000000000000002
ITEM: ATOMS id type x y z
1      1          0.0000000000000000     0.0000000000000000     0.0000000000000000
2      1          1.8928934785354501     2.0150286444509926     1.7099642527697840
ITEM: TIMESTEP energy, energy_weight, force_weight, nsims
3        -12028.9509282509025070    1    1   598
ITEM: NUMBER OF ATOMS
2         
ITEM: BOX BOUNDS xy xz yz pp pp pp
    0.0000000000000000      3.7910258118360001      0.0000000000000002
    0.0000000000000000      4.0300461982464473      0.0000000000000002
    0.0000000000000000      3.4199185040895617      0.0000000000000002
ITEM: ATOMS id type x y z
1      1          0.0000000000000000     0.0000000000000000     0.0000000000000000
2      1          1.8955129059180000     2.0150230991232236     1.7099592520447808
ITEM: TIMESTEP energy, energy_weight, force_weight, nsims
4        -12028.9526537255314906    1    1   598
ITEM: NUMBER OF ATOMS
2         
ITEM: BOX BOUNDS xy xz yz pp pp pp
    0.0000000000000000      3.7962646666011000      0.0000000000000002
    0.0000000000000000      4.0300424410350626      0.0000000000000002
    0.0000000000000000      3.4199143763482662      0.0000000000000002
ITEM: ATOMS id type x y z
1      1          0.0000000000000000     0.0000000000000000     0.0000000000000000
2      1          1.8981323333005500     2.0150212205175313     1.7099571881741331
ITEM: TIMESTEP energy, energy_weight, force_weight, nsims
5        -12028.9543348455845262    1    1   598
ITEM: NUMBER OF ATOMS
2         
ITEM: BOX BOUNDS xy xz yz pp pp pp
    0.0000000000000000      3.8015035213661998      0.0000000000000002
    0.0000000000000000      4.0300461115672146      0.0000000000000002
    0.0000000000000000      3.4199162008985033      0.0000000000000002
ITEM: ATOMS id type x y z
1      1          0.0000000000000000     0.0000000000000000     0.0000000000000000
2      1          1.9007517606830999     2.0150230557836073     1.7099581004492517
ITEM: TIMESTEP energy, energy_weight, force_weight, nsims
6        -12028.9559759648855106    1    1   598
ITEM: NUMBER OF ATOMS
2         
ITEM: BOX BOUNDS xy xz yz pp pp pp
    0.0000000000000000      3.8067423761313002      0.0000000000000002
    0.0000000000000000      4.0300611108846667      0.0000000000000002
    0.0000000000000000      3.4199278630654701      0.0000000000000002
ITEM: ATOMS id type x y z
1      1          0.0000000000000000     0.0000000000000000     0.0000000000000000
2      1          1.9033711880656501     2.0150305554423333     1.7099639315327351
ITEM: TIMESTEP energy, energy_weight, force_weight, nsims
7        -12028.9575785800607264    1    1   598
ITEM: NUMBER OF ATOMS
2         
ITEM: BOX BOUNDS xy xz yz pp pp pp
    0.0000000000000000      3.8119812308964001      0.0000000000000002
    0.0000000000000000      4.0300799250409067      0.0000000000000002
    0.0000000000000000      3.4199456451673211      0.0000000000000002
ITEM: ATOMS id type x y z
1      1          0.0000000000000000     0.0000000000000000     0.0000000000000000
2      1          1.9059906154482000     2.0150399625204534     1.7099728225836606
ITEM: TIMESTEP energy, energy_weight, force_weight, nsims
8        -12028.9591405141982250    1    1   598
ITEM: NUMBER OF ATOMS
2         
ITEM: BOX BOUNDS xy xz yz pp pp pp
    0.0000000000000000      3.8171671679366002      0.0000000000000002
    0.0000000000000000      4.0300505808924241      0.0000000000000002
    0.0000000000000000      3.4199183979366059      0.0000000000000002
ITEM: ATOMS id type x y z
1      1          0.0000000000000000     0.0000000000000000     0.0000000000000000
2      1          1.9085835839683001     2.0150252904462120     1.7099591989683030
ITEM: TIMESTEP energy, energy_weight, force_weight, nsims
9        -12028.9606613591276982    1    1   598
ITEM: NUMBER OF ATOMS
2         
ITEM: BOX BOUNDS xy xz yz pp pp pp
    0.0000000000000000      3.8224060227017000      0.0000000000000002
    0.0000000000000000      4.0300849867271289      0.0000000000000002
    0.0000000000000000      3.4199487149774606      0.0000000000000002
ITEM: ATOMS id type x y z
1      1          0.0000000000000000     0.0000000000000000     0.0000000000000000
2      1          1.9112030113508500     2.0150424933635644     1.7099743574887303
ITEM: TIMESTEP energy, energy_weight, force_weight, nsims
10       -12028.9621475095282221    1    1   598
ITEM: NUMBER OF ATOMS
2         
ITEM: BOX BOUNDS xy xz yz pp pp pp
    0.0000000000000000      3.8275919597419001      0.0000000000000002
    0.0000000000000000      4.0300677468202863      0.0000000000000002
    0.0000000000000000      3.4199342780695892      0.0000000000000002
ITEM: ATOMS id type x y z
1      1          0.0000000000000000     0.0000000000000000     0.0000000000000000
2      1          1.9137959798709501     2.0150338734101432     1.7099671390347946
ITEM: TIMESTEP energy, energy_weight, force_weight, nsims
11       -12028.9635914822647464    1    1   598
ITEM: NUMBER OF ATOMS
2         
ITEM: BOX BOUNDS xy xz yz pp pp pp
    0.0000000000000000      3.8327778967820998      0.0000000000000002
    0.0000000000000000      4.0300624734631647      0.0000000000000002
    0.0000000000000000      3.4199302256302153      0.0000000000000002
ITEM: ATOMS id type x y z
1      1          0.0000000000000000     0.0000000000000000     0.0000000000000000
2      1          1.9163889483910499     2.0150312367315824     1.7099651128151077
ITEM: TIMESTEP energy, energy_weight, force_weight, nsims
12       -12028.9649969508736831    1    1   598
ITEM: NUMBER OF ATOMS
2         
ITEM: BOX BOUNDS xy xz yz pp pp pp
    0.0000000000000000      3.8379638338223003      0.0000000000000002
    0.0000000000000000      4.0300654375966065      0.0000000000000002
    0.0000000000000000      3.4199328130423745      0.0000000000000002
ITEM: ATOMS id type x y z
1      1          0.0000000000000000     0.0000000000000000     0.0000000000000000
2      1          1.9189819169111502     2.0150327187983033     1.7099664065211873
ITEM: TIMESTEP energy, energy_weight, force_weight, nsims
13       -12028.9663648677578749    1    1   598
ITEM: NUMBER OF ATOMS
2         
ITEM: BOX BOUNDS xy xz yz pp pp pp
    0.0000000000000000      3.8431497708625004      0.0000000000000002
    0.0000000000000000      4.0300728894177098      0.0000000000000002
    0.0000000000000000      3.4199382749453506      0.0000000000000002
ITEM: ATOMS id type x y z
1      1          0.0000000000000000     0.0000000000000000     0.0000000000000000
2      1          1.9215748854312502     2.0150364447088549     1.7099691374726753
ITEM: TIMESTEP energy, energy_weight, force_weight, nsims
14       -12028.9676926478314272    1    1   598
ITEM: NUMBER OF ATOMS
2         
ITEM: BOX BOUNDS xy xz yz pp pp pp
    0.0000000000000000      3.8483357079027005      0.0000000000000002
    0.0000000000000000      4.0300887550512359      0.0000000000000002
    0.0000000000000000      3.4199505219060948      0.0000000000000002
ITEM: ATOMS id type x y z
1      1          0.0000000000000000     0.0000000000000000     0.0000000000000000
2      1          1.9241678539513503     2.0150443775256179     1.7099752609530474
ITEM: TIMESTEP energy, energy_weight, force_weight, nsims
15       -12028.9689801550393895    1    1   598
ITEM: NUMBER OF ATOMS
2         
ITEM: BOX BOUNDS xy xz yz pp pp pp
    0.0000000000000000      3.8534687272180004      0.0000000000000002
    0.0000000000000000      4.0300539316427644      0.0000000000000002
    0.0000000000000000      3.4199226676561567      0.0000000000000002
ITEM: ATOMS id type x y z
1      1          0.0000000000000000     0.0000000000000000     0.0000000000000000
2      1          1.9267343636090002     2.0150269658213822     1.7099613338280784
ITEM: TIMESTEP energy, energy_weight, force_weight, nsims
16       -12028.9702332398319413    1    1   598
ITEM: NUMBER OF ATOMS
2         
ITEM: BOX BOUNDS xy xz yz pp pp pp
    0.0000000000000000      3.8586546642582005      0.0000000000000002
    0.0000000000000000      4.0300831150271987      0.0000000000000002
    0.0000000000000000      3.4199487808600284      0.0000000000000002
ITEM: ATOMS id type x y z
1      1          0.0000000000000000     0.0000000000000000     0.0000000000000000
2      1          1.9293273321291002     2.0150415575135994     1.7099743904300142
ITEM: TIMESTEP energy, energy_weight, force_weight, nsims
17       -12028.9714493171250069    1    1   598
ITEM: NUMBER OF ATOMS
2         
ITEM: BOX BOUNDS xy xz yz pp pp pp
    0.0000000000000000      3.8637876835734999      0.0000000000000002
    0.0000000000000000      4.0300657865360847      0.0000000000000002
    0.0000000000000000      3.4199312096353105      0.0000000000000002
ITEM: ATOMS id type x y z
1      1          0.0000000000000000     0.0000000000000000     0.0000000000000000
2      1          1.9318938417867499     2.0150328932680424     1.7099656048176552
ITEM: TIMESTEP energy, energy_weight, force_weight, nsims
18       -12028.9726270263490733    1    1   598
ITEM: NUMBER OF ATOMS
2         
ITEM: BOX BOUNDS xy xz yz pp pp pp
    0.0000000000000000      3.8689207028888002      0.0000000000000002
    0.0000000000000000      4.0300535123227119      0.0000000000000002
    0.0000000000000000      3.4199247174771483      0.0000000000000002
ITEM: ATOMS id type x y z
1      1          0.0000000000000000     0.0000000000000000     0.0000000000000000
2      1          1.9344603514444001     2.0150267561613560     1.7099623587385742
ITEM: TIMESTEP energy, energy_weight, force_weight, nsims
19       -12028.9737629660812672    1    1   598
ITEM: NUMBER OF ATOMS
2         
ITEM: BOX BOUNDS xy xz yz pp pp pp
    0.0000000000000000      3.8740537222041000      0.0000000000000002
    0.0000000000000000      4.0300502434360919      0.0000000000000002
    0.0000000000000000      3.4199216486724464      0.0000000000000002
ITEM: ATOMS id type x y z
1      1          0.0000000000000000     0.0000000000000000     0.0000000000000000
2      1          1.9370268611020500     2.0150251217180459     1.7099608243362232
ITEM: TIMESTEP energy, energy_weight, force_weight, nsims
20       -12028.9748643473394623    1    1   598
ITEM: NUMBER OF ATOMS
2         
ITEM: BOX BOUNDS xy xz yz pp pp pp
    0.0000000000000000      3.8791867415193999      0.0000000000000002
    0.0000000000000000      4.0300521930838302      0.0000000000000002
    0.0000000000000000      3.4199220648174347      0.0000000000000002
ITEM: ATOMS id type x y z
1      1          0.0000000000000000     0.0000000000000000     0.0000000000000000
2      1          1.9395933707597000     2.0150260965419151     1.7099610324087173
ITEM: TIMESTEP energy, energy_weight, force_weight, nsims
21       -12028.9759265441862226    1    1   598
ITEM: NUMBER OF ATOMS
2         
ITEM: BOX BOUNDS xy xz yz pp pp pp
    0.0000000000000000      3.8843197608347002      0.0000000000000002
    0.0000000000000000      4.0300633225809781      0.0000000000000002
    0.0000000000000000      3.4199299118281070      0.0000000000000002
ITEM: ATOMS id type x y z
1      1          0.0000000000000000     0.0000000000000000     0.0000000000000000
2      1          1.9421598804173501     2.0150316612904891     1.7099649559140535
ITEM: TIMESTEP energy, energy_weight, force_weight, nsims
22       -12028.9769517335371347    1    1   598
ITEM: NUMBER OF ATOMS
2         
ITEM: BOX BOUNDS xy xz yz pp pp pp
    0.0000000000000000      3.8894527801500001      0.0000000000000002
    0.0000000000000000      4.0300798348691034      0.0000000000000002
    0.0000000000000000      3.4199452666997527      0.0000000000000002
ITEM: ATOMS id type x y z
1      1          0.0000000000000000     0.0000000000000000     0.0000000000000000
2      1          1.9447263900750000     2.0150399174345517     1.7099726333498764
ITEM: TIMESTEP energy, energy_weight, force_weight, nsims
23       -12028.9779370581891271    1    1   598
ITEM: NUMBER OF ATOMS
2         
ITEM: BOX BOUNDS xy xz yz pp pp pp
    0.0000000000000000      3.8945328817404001      0.0000000000000002
    0.0000000000000000      4.0300509424263202      0.0000000000000002
    0.0000000000000000      3.4199178430413424      0.0000000000000002
ITEM: ATOMS id type x y z
1      1          0.0000000000000000     0.0000000000000000     0.0000000000000000
2      1          1.9472664408702001     2.0150254712131601     1.7099589215206712
ITEM: TIMESTEP energy, energy_weight, force_weight, nsims
24       -12028.9788894570556295    1    1   598
ITEM: NUMBER OF ATOMS
2         
ITEM: BOX BOUNDS xy xz yz pp pp pp
    0.0000000000000000      3.8996659010557000      0.0000000000000002
    0.0000000000000000      4.0300824277847047      0.0000000000000002
    0.0000000000000000      3.4199446005714318      0.0000000000000002
ITEM: ATOMS id type x y z
1      1          0.0000000000000000     0.0000000000000000     0.0000000000000000
2      1          1.9498329505278500     2.0150412138923524     1.7099723002857159
ITEM: TIMESTEP energy, energy_weight, force_weight, nsims
25       -12028.9798040320783912    1    1   598
ITEM: NUMBER OF ATOMS
2         
ITEM: BOX BOUNDS xy xz yz pp pp pp
    0.0000000000000000      3.9047460026461001      0.0000000000000002
    0.0000000000000000      4.0300649208550237      0.0000000000000002
    0.0000000000000000      3.4199327389575598      0.0000000000000002
ITEM: ATOMS id type x y z
1      1          0.0000000000000000     0.0000000000000000     0.0000000000000000
2      1          1.9523730013230500     2.0150324604275118     1.7099663694787799
ITEM: TIMESTEP energy, energy_weight, force_weight, nsims
26       -12028.9806807832628692    1    1   598
ITEM: NUMBER OF ATOMS
2         
ITEM: BOX BOUNDS xy xz yz pp pp pp
    0.0000000000000000      3.9098261042365001      0.0000000000000002
    0.0000000000000000      4.0300532569417715      0.0000000000000002
    0.0000000000000000      3.4199209835495616      0.0000000000000002
ITEM: ATOMS id type x y z
1      1          0.0000000000000000     0.0000000000000000     0.0000000000000000
2      1          1.9549130521182501     2.0150266284708858     1.7099604917747808
ITEM: TIMESTEP energy, energy_weight, force_weight, nsims
27       -12028.9815218875173741    1    1   598
ITEM: NUMBER OF ATOMS
2         
ITEM: BOX BOUNDS xy xz yz pp pp pp
    0.0000000000000000      3.9149062058269002      0.0000000000000002
    0.0000000000000000      4.0300514271526806      0.0000000000000002
    0.0000000000000000      3.4199211247869701      0.0000000000000002
ITEM: ATOMS id type x y z
1      1          0.0000000000000000     0.0000000000000000     0.0000000000000000
2      1          1.9574531029134501     2.0150257135763403     1.7099605623934850
ITEM: TIMESTEP energy, energy_weight, force_weight, nsims
28       -12028.9823258482156234    1    1   598
ITEM: NUMBER OF ATOMS
2         
ITEM: BOX BOUNDS xy xz yz pp pp pp
    0.0000000000000000      3.9199863074173003      0.0000000000000002
    0.0000000000000000      4.0300556029432704      0.0000000000000002
    0.0000000000000000      3.4199214941526899      0.0000000000000002
ITEM: ATOMS id type x y z
1      1          0.0000000000000000     0.0000000000000000     0.0000000000000000
2      1          1.9599931537086501     2.0150278014716352     1.7099607470763449
ITEM: TIMESTEP energy, energy_weight, force_weight, nsims
29       -12028.9830913047881040    1    1   598
ITEM: NUMBER OF ATOMS
2         
ITEM: BOX BOUNDS xy xz yz pp pp pp
    0.0000000000000000      3.9250664090077003      0.0000000000000002
    0.0000000000000000      4.0300658605150641      0.0000000000000002
    0.0000000000000000      3.4199299875004541      0.0000000000000002
ITEM: ATOMS id type x y z
1      1          0.0000000000000000     0.0000000000000000     0.0000000000000000
2      1          1.9625332045038502     2.0150329302575321     1.7099649937502270
ITEM: TIMESTEP energy, energy_weight, force_weight, nsims
30       -12028.9838231552876096    1    1   598
ITEM: NUMBER OF ATOMS
2         
ITEM: BOX BOUNDS xy xz yz pp pp pp
    0.0000000000000000      3.9301465105980999      0.0000000000000002
    0.0000000000000000      4.0300822760695887      0.0000000000000002
    0.0000000000000000      3.4199466810317860      0.0000000000000002
ITEM: ATOMS id type x y z
1      1          0.0000000000000000     0.0000000000000000     0.0000000000000000
2      1          1.9650732552990500     2.0150411380347943     1.7099733405158930
ITEM: TIMESTEP energy, energy_weight, force_weight, nsims
31       -12028.9845203112563468    1    1   598
ITEM: NUMBER OF ATOMS
2         
ITEM: BOX BOUNDS xy xz yz pp pp pp
    0.0000000000000000      3.9351736944636002      0.0000000000000002
    0.0000000000000000      4.0300507322371173      0.0000000000000002
    0.0000000000000000      3.4199217267790085      0.0000000000000002
ITEM: ATOMS id type x y z
1      1          0.0000000000000000     0.0000000000000000     0.0000000000000000
2      1          1.9675868472318001     2.0150253661185586     1.7099608633895043
ITEM: TIMESTEP energy, energy_weight, force_weight, nsims
32       -12028.9851801876138779    1    1   598
ITEM: NUMBER OF ATOMS
2         
ITEM: BOX BOUNDS xy xz yz pp pp pp
    0.0000000000000000      3.9402537960539998      0.0000000000000002
    0.0000000000000000      4.0300797618426429      0.0000000000000002
    0.0000000000000000      3.4199472225388652      0.0000000000000002
ITEM: ATOMS id type x y z
1      1          0.0000000000000000     0.0000000000000000     0.0000000000000000
2      1          1.9701268980269999     2.0150398809213215     1.7099736112694326
ITEM: TIMESTEP energy, energy_weight, force_weight, nsims
33       -12028.9858078184643091    1    1   598
ITEM: NUMBER OF ATOMS
2         
ITEM: BOX BOUNDS xy xz yz pp pp pp
    0.0000000000000000      3.9452809799195001      0.0000000000000002
    0.0000000000000000      4.0300650681779695      0.0000000000000002
    0.0000000000000000      3.4199313099143986      0.0000000000000002
ITEM: ATOMS id type x y z
1      1          0.0000000000000000     0.0000000000000000     0.0000000000000000
2      1          1.9726404899597501     2.0150325340889848     1.7099656549571993
ITEM: TIMESTEP energy, energy_weight, force_weight, nsims
34       -12028.9863992581595085    1    1   598
ITEM: NUMBER OF ATOMS
2         
ITEM: BOX BOUNDS xy xz yz pp pp pp
    0.0000000000000000      3.9503081637849999      0.0000000000000002
    0.0000000000000000      4.0300530346873273      0.0000000000000002
    0.0000000000000000      3.4199239884825703      0.0000000000000002
ITEM: ATOMS id type x y z
1      1          0.0000000000000000     0.0000000000000000     0.0000000000000000
2      1          1.9751540818925000     2.0150265173436637     1.7099619942412851
ITEM: TIMESTEP energy, energy_weight, force_weight, nsims
35       -12028.9869557312104007    1    1   598
ITEM: NUMBER OF ATOMS
2         
ITEM: BOX BOUNDS xy xz yz pp pp pp
    0.0000000000000000      3.9553353476505002      0.0000000000000002
    0.0000000000000000      4.0300476770322700      0.0000000000000002
    0.0000000000000000      3.4199174229804425      0.0000000000000002
ITEM: ATOMS id type x y z
1      1          0.0000000000000000     0.0000000000000000     0.0000000000000000
2      1          1.9776676738252501     2.0150238385161350     1.7099587114902213
ITEM: TIMESTEP energy, energy_weight, force_weight, nsims
36       -12028.9874802308713697    1    1   598
ITEM: NUMBER OF ATOMS
2         
ITEM: BOX BOUNDS xy xz yz pp pp pp
    0.0000000000000000      3.9603625315160000      0.0000000000000002
    0.0000000000000000      4.0300530309830869      0.0000000000000002
    0.0000000000000000      3.4199195793777317      0.0000000000000002
ITEM: ATOMS id type x y z
1      1          0.0000000000000000     0.0000000000000000     0.0000000000000000
2      1          1.9801812657580000     2.0150265154915434     1.7099597896888659
ITEM: TIMESTEP energy, energy_weight, force_weight, nsims
37       -12028.9879692196591350    1    1   598
ITEM: NUMBER OF ATOMS
2         
ITEM: BOX BOUNDS xy xz yz pp pp pp
    0.0000000000000000      3.9653897153815003      0.0000000000000002
    0.0000000000000000      4.0300612562496561      0.0000000000000002
    0.0000000000000000      3.4199265676924822      0.0000000000000002
ITEM: ATOMS id type x y z
1      1          0.0000000000000000     0.0000000000000000     0.0000000000000000
2      1          1.9826948576907502     2.0150306281248280     1.7099632838462411
ITEM: TIMESTEP energy, energy_weight, force_weight, nsims
38       -12028.9884228336341039    1    1   598
ITEM: NUMBER OF ATOMS
2         
ITEM: BOX BOUNDS xy xz yz pp pp pp
    0.0000000000000000      3.9704168992470001      0.0000000000000002
    0.0000000000000000      4.0300763835750848      0.0000000000000002
    0.0000000000000000      3.4199424186677985      0.0000000000000002
ITEM: ATOMS id type x y z
1      1          0.0000000000000000     0.0000000000000000     0.0000000000000000
2      1          1.9852084496235001     2.0150381917875424     1.7099712093338992
ITEM: TIMESTEP energy, energy_weight, force_weight, nsims
39       -12028.9888455626714858    1    1   598
ITEM: NUMBER OF ATOMS
2         
ITEM: BOX BOUNDS xy xz yz pp pp pp
    0.0000000000000000      3.9753911653876002      0.0000000000000002
    0.0000000000000000      4.0300448431293487      0.0000000000000002
    0.0000000000000000      3.4199137332391563      0.0000000000000002
ITEM: ATOMS id type x y z
1      1          0.0000000000000000     0.0000000000000000     0.0000000000000000
2      1          1.9876955826938001     2.0150224215646744     1.7099568666195781
ITEM: TIMESTEP energy, energy_weight, force_weight, nsims
40       -12028.9892386312876624    1    1   598
ITEM: NUMBER OF ATOMS
2         
ITEM: BOX BOUNDS xy xz yz pp pp pp
    0.0000000000000000      3.9804183492531000      0.0000000000000002
    0.0000000000000000      4.0300700877416835      0.0000000000000002
    0.0000000000000000      3.4199396219131200      0.0000000000000002
ITEM: ATOMS id type x y z
1      1          0.0000000000000000     0.0000000000000000     0.0000000000000000
2      1          1.9902091746265500     2.0150350438708418     1.7099698109565600
ITEM: TIMESTEP energy, energy_weight, force_weight, nsims
41       -12028.9895959169207345    1    1   598
ITEM: NUMBER OF ATOMS
2         
ITEM: BOX BOUNDS xy xz yz pp pp pp
    0.0000000000000000      3.9853926153937000      0.0000000000000002
    0.0000000000000000      4.0300529250418018      0.0000000000000002
    0.0000000000000000      3.4199211987659495      0.0000000000000002
ITEM: ATOMS id type x y z
1      1          0.0000000000000000     0.0000000000000000     0.0000000000000000
2      1          1.9926963076968500     2.0150264625209009     1.7099605993829747
ITEM: TIMESTEP energy, energy_weight, force_weight, nsims
42       -12028.9899280320096295    1    1   598
ITEM: NUMBER OF ATOMS
2         
ITEM: BOX BOUNDS xy xz yz pp pp pp
    0.0000000000000000      3.9903668815343001      0.0000000000000002
    0.0000000000000000      4.0300391090705130      0.0000000000000002
    0.0000000000000000      3.4199120128839193      0.0000000000000002
ITEM: ATOMS id type x y z
1      1          0.0000000000000000     0.0000000000000000     0.0000000000000000
2      1          1.9951834407671500     2.0150195545352565     1.7099560064419597
ITEM: TIMESTEP energy, energy_weight, force_weight, nsims
43       -12028.9902253165128059    1    1   598
ITEM: NUMBER OF ATOMS
2         
ITEM: BOX BOUNDS xy xz yz pp pp pp
    0.0000000000000000      3.9953940653998004      0.0000000000000002
    0.0000000000000000      4.0300860720696665      0.0000000000000002
    0.0000000000000000      3.4199494443424632      0.0000000000000002
ITEM: ATOMS id type x y z
1      1          0.0000000000000000     0.0000000000000000     0.0000000000000000
2      1          1.9976970326999002     2.0150430360348333     1.7099747221712316
ITEM: TIMESTEP energy, energy_weight, force_weight, nsims
44       -12028.9904936208786239    1    1   598
ITEM: NUMBER OF ATOMS
2         
ITEM: BOX BOUNDS xy xz yz pp pp pp
    0.0000000000000000      4.0003683315404004      0.0000000000000002
    0.0000000000000000      4.0300870678754128      0.0000000000000002
    0.0000000000000000      3.4199508899488715      0.0000000000000002
ITEM: ATOMS id type x y z
1      1          0.0000000000000000     0.0000000000000000     0.0000000000000000
2      1          2.0001841657701998     2.0150435339377064     1.7099754449744358
ITEM: TIMESTEP energy, energy_weight, force_weight, nsims
45       -12028.9907309042537236    1    1   598
ITEM: NUMBER OF ATOMS
2         
ITEM: BOX BOUNDS xy xz yz pp pp pp
    0.0000000000000000      4.0052896799561006      0.0000000000000002
    0.0000000000000000      4.0300383648885481      0.0000000000000002
    0.0000000000000000      3.4199085826511557      0.0000000000000002
ITEM: ATOMS id type x y z
1      1          0.0000000000000000     0.0000000000000000     0.0000000000000000
2      1          2.0026448399780499     2.0150191824442740     1.7099542913255779
ITEM: TIMESTEP energy, energy_weight, force_weight, nsims
46       -12028.9909377108633635    1    1   598
ITEM: NUMBER OF ATOMS
2         
ITEM: BOX BOUNDS xy xz yz pp pp pp
    0.0000000000000000      4.0102639460967007      0.0000000000000002
    0.0000000000000000      4.0300505884067404      0.0000000000000002
    0.0000000000000000      3.4199210111196963      0.0000000000000002
ITEM: ATOMS id type x y z
1      1          0.0000000000000000     0.0000000000000000     0.0000000000000000
2      1          2.0051319730483499     2.0150252942033702     1.7099605055598481
ITEM: TIMESTEP energy, energy_weight, force_weight, nsims
47       -12028.9911156733942335    1    1   598
ITEM: NUMBER OF ATOMS
2         
ITEM: BOX BOUNDS xy xz yz pp pp pp
    0.0000000000000000      4.0152382122373007      0.0000000000000002
    0.0000000000000000      4.0300705021933050      0.0000000000000002
    0.0000000000000000      3.4199349796527856      0.0000000000000002
ITEM: ATOMS id type x y z
1      1          0.0000000000000000     0.0000000000000000     0.0000000000000000
2      1          2.0076191061186499     2.0150352510966525     1.7099674898263928
ITEM: TIMESTEP energy, energy_weight, force_weight, nsims
48       -12028.9912637033903593    1    1   598
ITEM: NUMBER OF ATOMS
2         
ITEM: BOX BOUNDS xy xz yz pp pp pp
    0.0000000000000000      4.0201595606530010      0.0000000000000002
    0.0000000000000000      4.0300411128530849      0.0000000000000002
    0.0000000000000000      3.4199135568114607      0.0000000000000002
ITEM: ATOMS id type x y z
1      1          0.0000000000000000     0.0000000000000000     0.0000000000000000
2      1          2.0100797803265000     2.0150205564265424     1.7099567784057303
ITEM: TIMESTEP energy, energy_weight, force_weight, nsims
49       -12028.9913831614176161    1    1   598
ITEM: NUMBER OF ATOMS
2         
ITEM: BOX BOUNDS xy xz yz pp pp pp
    0.0000000000000000      4.0251338267936001      0.0000000000000002
    0.0000000000000000      4.0300726659990760      0.0000000000000002
    0.0000000000000000      3.4199388553998751      0.0000000000000002
ITEM: ATOMS id type x y z
1      1          0.0000000000000000     0.0000000000000000     0.0000000000000000
2      1          2.0125669133967996     2.0150363329995380     1.7099694276999375
ITEM: TIMESTEP energy, energy_weight, force_weight, nsims
50       -12028.9914860204953584    1    1   598
ITEM: NUMBER OF ATOMS
2         
ITEM: BOX BOUNDS xy xz yz pp pp pp
    0.0000000000000000      4.0300551752093003      0.0000000000000002
    0.0000000000000000      4.0300511451541245      0.0000000000000002
    0.0000000000000000      3.4199209419033130      0.0000000000000002
ITEM: ATOMS id type x y z
1      1          0.0000000000000000     0.0000000000000000     0.0000000000000000
2      1          2.0150275876046497     2.0150255725770623     1.7099604709516565
ITEM: TIMESTEP energy, energy_weight, force_weight, nsims
51       -12028.9915415317427687    1    1   598
ITEM: NUMBER OF ATOMS
2         
ITEM: BOX BOUNDS xy xz yz pp pp pp
    0.0000000000000000      4.0349765236250006      0.0000000000000002
    0.0000000000000000      4.0300457823131302      0.0000000000000002
    0.0000000000000000      3.4199169821757938      0.0000000000000002
ITEM: ATOMS id type x y z
1      1          0.0000000000000000     0.0000000000000000     0.0000000000000000
2      1          2.0174882618124999     2.0150228911565651     1.7099584910878969
ITEM: TIMESTEP energy, energy_weight, force_weight, nsims
52       -12028.9915788113557937    1    1   598
ITEM: NUMBER OF ATOMS
2         
ITEM: BOX BOUNDS xy xz yz pp pp pp
    0.0000000000000000      4.0398978720407008      0.0000000000000002
    0.0000000000000000      4.0300405212329204      0.0000000000000002
    0.0000000000000000      3.4199109052101018      0.0000000000000002
ITEM: ATOMS id type x y z