ITEM: TIMESTEP energy, energy_weight, force_weight, nsims
1        -24057.8927717050937645    1    1   885
ITEM: NUMBER OF ATOMS
4         
ITEM: BOX BOUNDS xy xz yz pp pp pp
    0.0000000000000000      4.5191207887351004      0.0000000000000003
    0.0000000000000000      4.8174008372747705      0.0000000000000003
    0.0000000000000000      4.8174008372747705      0.0000000000000003
ITEM: ATOMS id type x y z
1      1          0.0000000000000000     0.0000000000000000     0.0000000000000000
2      1          2.2595603943675497     2.4087004186373853     0.0000000000000000
3      1          0.0000000000000003     2.4087004186373853     2.4087004186373853
4      1          2.2595603943675497     0.0000000000000001     2.4087004186373853
ITEM: TIMESTEP energy, energy_weight, force_weight, nsims
2        -24057.8968166791273688    1    1   885
ITEM: NUMBER OF ATOMS
4         
ITEM: BOX BOUNDS xy xz yz pp pp pp
    0.0000000000000000      4.5254179979982005      0.0000000000000003
    0.0000000000000000      4.8174115434830380      0.0000000000000003
    0.0000000000000000      4.8174115434830380      0.0000000000000003
ITEM: ATOMS id type x y z
1      1          0.0000000000000000     0.0000000000000000     0.0000000000000000
2      1          2.2627089989990998     2.4087057717415190     0.0000000000000000
3      1          0.0000000000000003     2.4087057717415190     2.4087057717415190
4      1          2.2627089989990998     0.0000000000000001     2.4087057717415190
ITEM: TIMESTEP energy, energy_weight, force_weight, nsims
3        -24057.9007873660521000    1    1   885
ITEM: NUMBER OF ATOMS
4         
ITEM: BOX BOUNDS xy xz yz pp pp pp
    0.0000000000000000      4.5316622895364000      0.0000000000000003
    0.0000000000000000      4.8173790652293791      0.0000000000000003
    0.0000000000000000      4.8173790652293791      0.0000000000000003
ITEM: ATOMS id type x y z
1      1          0.0000000000000000     0.0000000000000000     0.0000000000000000
2      1          2.2658311447681996     2.4086895326146895     0.0000000000000000
3      1          0.0000000000000003     2.4086895326146895     2.4086895326146895
4      1          2.2658311447681996     0.0000000000000001     2.4086895326146895
ITEM: TIMESTEP energy, energy_weight, force_weight, nsims
4        -24057.9046543775584723    1    1   885
ITEM: NUMBER OF ATOMS
4         
ITEM: BOX BOUNDS xy xz yz pp pp pp
    0.0000000000000000      4.5379594987995002      0.0000000000000003
    0.0000000000000000      4.8174115826950725      0.0000000000000003
    0.0000000000000000      4.8174115826950725      0.0000000000000003
ITEM: ATOMS id type x y z
1      1          0.0000000000000000     0.0000000000000000     0.0000000000000000
2      1          2.2689797493997497     2.4087057913475363     0.0000000000000000
3      1          0.0000000000000003     2.4087057913475363     2.4087057913475363
4      1          2.2689797493997497     0.0000000000000001     2.4087057913475363
ITEM: TIMESTEP energy, energy_weight, force_weight, nsims
5        -24057.9084324077957717    1    1   885
ITEM: NUMBER OF ATOMS
4         
ITEM: BOX BOUNDS xy xz yz pp pp pp
    0.0000000000000000      4.5442037903377006      0.0000000000000003
    0.0000000000000000      4.8173967780090123      0.0000000000000003
    0.0000000000000000      4.8173967780090123      0.0000000000000003
ITEM: ATOMS id type x y z
1      1          0.0000000000000000     0.0000000000000000     0.0000000000000000
2      1          2.2721018951688499     2.4086983890045062     0.0000000000000000
3      1          0.0000000000000003     2.4086983890045062     2.4086983890045062
4      1          2.2721018951688499     0.0000000000000001     2.4086983890045062
ITEM: TIMESTEP energy, energy_weight, force_weight, nsims
6        -24057.9121281235602510    1    1   885
ITEM: NUMBER OF ATOMS
4         
ITEM: BOX BOUNDS xy xz yz pp pp pp
    0.0000000000000000      4.5504480818759001      0.0000000000000003
    0.0000000000000000      4.8173955681510678      0.0000000000000003
    0.0000000000000000      4.8173955681510678      0.0000000000000003
ITEM: ATOMS id type x y z
1      1          0.0000000000000000     0.0000000000000000     0.0000000000000000
2      1          2.2752240409379496     2.4086977840755339     0.0000000000000000
3      1          0.0000000000000003     2.4086977840755339     2.4086977840755339
4      1          2.2752240409379496     0.0000000000000001     2.4086977840755339
ITEM: TIMESTEP energy, energy_weight, force_weight, nsims
7        -24057.9157330893212929    1    1   885
ITEM: NUMBER OF ATOMS
4         
ITEM: BOX BOUNDS xy xz yz pp pp pp
    0.0000000000000000      4.5566923734141014      0.0000000000000003
    0.0000000000000000      4.8173989708666145      0.0000000000000003
    0.0000000000000000      4.8173989708666145      0.0000000000000003
ITEM: ATOMS id type x y z
1      1          0.0000000000000000     0.0000000000000000     0.0000000000000000
2      1          2.2783461867070502     2.4086994854333073     0.0000000000000000
3      1          0.0000000000000003     2.4086994854333073     2.4086994854333073
4      1          2.2783461867070502     0.0000000000000001     2.4086994854333073
ITEM: TIMESTEP energy, energy_weight, force_weight, nsims
8        -24057.9192417267368000    1    1   885
ITEM: NUMBER OF ATOMS
4         
ITEM: BOX BOUNDS xy xz yz pp pp pp
    0.0000000000000000      4.5629366649523009      0.0000000000000003
    0.0000000000000000      4.8174116427566895      0.0000000000000003
    0.0000000000000000      4.8174116427566895      0.0000000000000003
ITEM: ATOMS id type x y z
1      1          0.0000000000000000     0.0000000000000000     0.0000000000000000
2      1          2.2814683324761500     2.4087058213783448     0.0000000000000000
3      1          0.0000000000000003     2.4087058213783448     2.4087058213783448
4      1          2.2814683324761500     0.0000000000000001     2.4087058213783448
ITEM: TIMESTEP energy, energy_weight, force_weight, nsims
9        -24057.9226586617478461    1    1   885
ITEM: NUMBER OF ATOMS
4         
ITEM: BOX BOUNDS xy xz yz pp pp pp
    0.0000000000000000      4.5691280387656006      0.0000000000000003
    0.0000000000000000      4.8173779033678112      0.0000000000000003
    0.0000000000000000      4.8173779033678112      0.0000000000000003
ITEM: ATOMS id type x y z
1      1          0.0000000000000000     0.0000000000000000     0.0000000000000000
2      1          2.2845640193827998     2.4086889516839056     0.0000000000000000
3      1          0.0000000000000003     2.4086889516839056     2.4086889516839056
4      1          2.2845640193827998     0.0000000000000001     2.4086889516839056
ITEM: TIMESTEP energy, energy_weight, force_weight, nsims
10       -24057.9259851188689936    1    1   885
ITEM: NUMBER OF ATOMS
4         
ITEM: BOX BOUNDS xy xz yz pp pp pp
    0.0000000000000000      4.5753723303038010      0.0000000000000003
    0.0000000000000000      4.8174049512045407      0.0000000000000003
    0.0000000000000000      4.8174049512045407      0.0000000000000003
ITEM: ATOMS id type x y z
1      1          0.0000000000000000     0.0000000000000000     0.0000000000000000
2      1          2.2876861651519000     2.4087024756022704     0.0000000000000000
3      1          0.0000000000000003     2.4087024756022704     2.4087024756022704
4      1          2.2876861651519000     0.0000000000000001     2.4087024756022704
ITEM: TIMESTEP energy, energy_weight, force_weight, nsims
11       -24057.9292156558185525    1    1   885
ITEM: NUMBER OF ATOMS
4         
ITEM: BOX BOUNDS xy xz yz pp pp pp
    0.0000000000000000      4.5815637041171007      0.0000000000000003
    0.0000000000000000      4.8173905326591191      0.0000000000000003
    0.0000000000000000      4.8173905326591191      0.0000000000000003
ITEM: ATOMS id type x y z
1      1          0.0000000000000000     0.0000000000000000     0.0000000000000000
2      1          2.2907818520585499     2.4086952663295595     0.0000000000000000
3      1          0.0000000000000003     2.4086952663295595     2.4086952663295595
4      1          2.2907818520585499     0.0000000000000001     2.4086952663295595
ITEM: TIMESTEP energy, energy_weight, force_weight, nsims
12       -24057.9323612932130345    1    1   885
ITEM: NUMBER OF ATOMS
4         
ITEM: BOX BOUNDS xy xz yz pp pp pp
    0.0000000000000000      4.5877550779304013      0.0000000000000003
    0.0000000000000000      4.8173859828460497      0.0000000000000003
    0.0000000000000000      4.8173859828460497      0.0000000000000003
ITEM: ATOMS id type x y z
1      1          0.0000000000000000     0.0000000000000000     0.0000000000000000
2      1          2.2938775389652002     2.4086929914230248     0.0000000000000000
3      1          0.0000000000000003     2.4086929914230248     2.4086929914230248
4      1          2.2938775389652002     0.0000000000000001     2.4086929914230248
ITEM: TIMESTEP energy, energy_weight, force_weight, nsims
13       -24057.9354013503871101    1    1   885
ITEM: NUMBER OF ATOMS
4         
ITEM: BOX BOUNDS xy xz yz pp pp pp
    0.0000000000000000      4.5939464517437010      0.0000000000000003
    0.0000000000000000      4.8173868192636098      0.0000000000000003
    0.0000000000000000      4.8173868192636098      0.0000000000000003
ITEM: ATOMS id type x y z
1      1          0.0000000000000000     0.0000000000000000     0.0000000000000000
2      1          2.2969732258718500     2.4086934096318049     0.0000000000000000
3      1          0.0000000000000003     2.4086934096318049     2.4086934096318049
4      1          2.2969732258718500     0.0000000000000001     2.4086934096318049
ITEM: TIMESTEP energy, energy_weight, force_weight, nsims
14       -24057.9383569161800551    1    1   885
ITEM: NUMBER OF ATOMS
4         
ITEM: BOX BOUNDS xy xz yz pp pp pp
    0.0000000000000000      4.6001378255570007      0.0000000000000003
    0.0000000000000000      4.8173977349202310      0.0000000000000003
    0.0000000000000000      4.8173977349202310      0.0000000000000003
ITEM: ATOMS id type x y z
1      1          0.0000000000000000     0.0000000000000000     0.0000000000000000
2      1          2.3000689127784999     2.4086988674601155     0.0000000000000000
3      1          0.0000000000000003     2.4086988674601155     2.4086988674601155
4      1          2.3000689127784999     0.0000000000000001     2.4086988674601155
ITEM: TIMESTEP energy, energy_weight, force_weight, nsims
15       -24057.9412103031754668    1    1   885
ITEM: NUMBER OF ATOMS
4         
ITEM: BOX BOUNDS xy xz yz pp pp pp
    0.0000000000000000      4.6063291993703013      0.0000000000000003
    0.0000000000000000      4.8174142349314444      0.0000000000000003
    0.0000000000000000      4.8174142349314444      0.0000000000000003
ITEM: ATOMS id type x y z
1      1          0.0000000000000000     0.0000000000000000     0.0000000000000000
2      1          2.3031645996851502     2.4087071174657222     0.0000000000000000
3      1          0.0000000000000003     2.4087071174657222     2.4087071174657222
4      1          2.3031645996851502     0.0000000000000001     2.4087071174657222
ITEM: TIMESTEP energy, energy_weight, force_weight, nsims
16       -24057.9439845050146687    1    1   885
ITEM: NUMBER OF ATOMS
4         
ITEM: BOX BOUNDS xy xz yz pp pp pp
    0.0000000000000000      4.6124676554587012      0.0000000000000003
    0.0000000000000000      4.8173857559877638      0.0000000000000003
    0.0000000000000000      4.8173857559877638      0.0000000000000003
ITEM: ATOMS id type x y z
1      1          0.0000000000000000     0.0000000000000000     0.0000000000000000
2      1          2.3062338277293501     2.4086928779938819     0.0000000000000000
3      1          0.0000000000000003     2.4086928779938819     2.4086928779938819
4      1          2.3062338277293501     0.0000000000000001     2.4086928779938819
ITEM: TIMESTEP energy, energy_weight, force_weight, nsims
17       -24057.9466640111895686    1    1   885
ITEM: NUMBER OF ATOMS
4         
ITEM: BOX BOUNDS xy xz yz pp pp pp
    0.0000000000000000      4.6186590292720000      0.0000000000000003
    0.0000000000000000      4.8174230205967197      0.0000000000000003
    0.0000000000000000      4.8174230205967197      0.0000000000000003
ITEM: ATOMS id type x y z
1      1          0.0000000000000000     0.0000000000000000     0.0000000000000000
2      1          2.3093295146359996     2.4087115102983598     0.0000000000000000
3      1          0.0000000000000003     2.4087115102983598     2.4087115102983598
4      1          2.3093295146359996     0.0000000000000001     2.4087115102983598
ITEM: TIMESTEP energy, energy_weight, force_weight, nsims
18       -24057.9492360323529283    1    1   885
ITEM: NUMBER OF ATOMS
4         
ITEM: BOX BOUNDS xy xz yz pp pp pp
    0.0000000000000000      4.6247974853603999      0.0000000000000003
    0.0000000000000000      4.8174110510306889      0.0000000000000003
    0.0000000000000000      4.8174110510306889      0.0000000000000003
ITEM: ATOMS id type x y z
1      1          0.0000000000000000     0.0000000000000000     0.0000000000000000
2      1          2.3123987426801995     2.4087055255153444     0.0000000000000000
3      1          0.0000000000000003     2.4087055255153444     2.4087055255153444
4      1          2.3123987426801995     0.0000000000000001     2.4087055255153444
ITEM: TIMESTEP energy, energy_weight, force_weight, nsims
19       -24057.9517117251707532    1    1   885
ITEM: NUMBER OF ATOMS
4         
ITEM: BOX BOUNDS xy xz yz pp pp pp
    0.0000000000000000      4.6309359414488007      0.0000000000000003
    0.0000000000000000      4.8174098390031190      0.0000000000000003
    0.0000000000000000      4.8174098390031190      0.0000000000000003
ITEM: ATOMS id type x y z
1      1          0.0000000000000000     0.0000000000000000     0.0000000000000000
2      1          2.3154679707243999     2.4087049195015595     0.0000000000000000
3      1          0.0000000000000003     2.4087049195015595     2.4087049195015595
4      1          2.3154679707243999     0.0000000000000001     2.4087049195015595
ITEM: TIMESTEP energy, energy_weight, force_weight, nsims
20       -24057.9540927223351900    1    1   885
ITEM: NUMBER OF ATOMS
4         
ITEM: BOX BOUNDS xy xz yz pp pp pp
    0.0000000000000000      4.6370743975372006      0.0000000000000003
    0.0000000000000000      4.8174148579318192      0.0000000000000003
    0.0000000000000000      4.8174148579318192      0.0000000000000003
ITEM: ATOMS id type x y z
1      1          0.0000000000000000     0.0000000000000000     0.0000000000000000
2      1          2.3185371987685999     2.4087074289659096     0.0000000000000000
3      1          0.0000000000000003     2.4087074289659096     2.4087074289659096
4      1          2.3185371987685999     0.0000000000000001     2.4087074289659096
ITEM: TIMESTEP energy, energy_weight, force_weight, nsims
21       -24057.9563768469233764    1    1   885
ITEM: NUMBER OF ATOMS
4         
ITEM: BOX BOUNDS xy xz yz pp pp pp
    0.0000000000000000      4.6431599359007008      0.0000000000000003
    0.0000000000000000      4.8173759398556291      0.0000000000000003
    0.0000000000000000      4.8173759398556291      0.0000000000000003
ITEM: ATOMS id type x y z
1      1          0.0000000000000000     0.0000000000000000     0.0000000000000000
2      1          2.3215799679503499     2.4086879699278145     0.0000000000000000
3      1          0.0000000000000003     2.4086879699278145     2.4086879699278145
4      1          2.3215799679503499     0.0000000000000001     2.4086879699278145
ITEM: TIMESTEP energy, energy_weight, force_weight, nsims
22       -24057.9585666840284830    1    1   885
ITEM: NUMBER OF ATOMS
4         
ITEM: BOX BOUNDS xy xz yz pp pp pp
    0.0000000000000000      4.6492983919891007      0.0000000000000003
    0.0000000000000000      4.8173984246498582      0.0000000000000003
    0.0000000000000000      4.8173984246498582      0.0000000000000003
ITEM: ATOMS id type x y z
1      1          0.0000000000000000     0.0000000000000000     0.0000000000000000
2      1          2.3246491959945499     2.4086992123249291     0.0000000000000000
3      1          0.0000000000000003     2.4086992123249291     2.4086992123249291
4      1          2.3246491959945499     0.0000000000000001     2.4086992123249291
ITEM: TIMESTEP energy, energy_weight, force_weight, nsims
23       -24057.9606686283223098    1    1   885
ITEM: NUMBER OF ATOMS
4         
ITEM: BOX BOUNDS xy xz yz pp pp pp
    0.0000000000000000      4.6553839303526008      0.0000000000000003
    0.0000000000000000      4.8173773249770786      0.0000000000000003
    0.0000000000000000      4.8173773249770786      0.0000000000000003
ITEM: ATOMS id type x y z
1      1          0.0000000000000000     0.0000000000000000     0.0000000000000000
2      1          2.3276919651762999     2.4086886624885393     0.0000000000000000
3      1          0.0000000000000003     2.4086886624885393     2.4086886624885393
4      1          2.3276919651762999     0.0000000000000001     2.4086886624885393
ITEM: TIMESTEP energy, energy_weight, force_weight, nsims
24       -24057.9626701625675196    1    1   885
ITEM: NUMBER OF ATOMS
4         
ITEM: BOX BOUNDS xy xz yz pp pp pp
    0.0000000000000000      4.6615223864409998      0.0000000000000003
    0.0000000000000000      4.8174176796107453      0.0000000000000003
    0.0000000000000000      4.8174176796107453      0.0000000000000003
ITEM: ATOMS id type x y z
1      1          0.0000000000000000     0.0000000000000000     0.0000000000000000
2      1          2.3307611932204995     2.4087088398053726     0.0000000000000000
3      1          0.0000000000000003     2.4087088398053726     2.4087088398053726
4      1          2.3307611932204995     0.0000000000000001     2.4087088398053726
ITEM: TIMESTEP energy, energy_weight, force_weight, nsims
25       -24057.9645748242364789    1    1   885
ITEM: NUMBER OF ATOMS
4         
ITEM: BOX BOUNDS xy xz yz pp pp pp
    0.0000000000000000      4.6676079248044999      0.0000000000000003
    0.0000000000000000      4.8174101335431754      0.0000000000000003
    0.0000000000000000      4.8174101335431754      0.0000000000000003
ITEM: ATOMS id type x y z
1      1          0.0000000000000000     0.0000000000000000     0.0000000000000000
2      1          2.3338039624022495     2.4087050667715877     0.0000000000000000
3      1          0.0000000000000003     2.4087050667715877     2.4087050667715877
4      1          2.3338039624022495     0.0000000000000001     2.4087050667715877
ITEM: TIMESTEP energy, energy_weight, force_weight, nsims
26       -24057.9663884637884621    1    1   885
ITEM: NUMBER OF ATOMS
4         
ITEM: BOX BOUNDS xy xz yz pp pp pp
    0.0000000000000000      4.6736934631680009      0.0000000000000003
    0.0000000000000000      4.8174095371604162      0.0000000000000003
    0.0000000000000000      4.8174095371604162      0.0000000000000003
ITEM: ATOMS id type x y z
1      1          0.0000000000000000     0.0000000000000000     0.0000000000000000
2      1          2.3368467315840000     2.4087047685802081     0.0000000000000000
3      1          0.0000000000000003     2.4087047685802081     2.4087047685802081
4      1          2.3368467315840000     0.0000000000000001     2.4087047685802081
ITEM: TIMESTEP energy, energy_weight, force_weight, nsims
27       -24057.9681245508618304    1    1   885
ITEM: NUMBER OF ATOMS
4         
ITEM: BOX BOUNDS xy xz yz pp pp pp
    0.0000000000000000      4.6797790015315011      0.0000000000000003
    0.0000000000000000      4.8174206615245438      0.0000000000000003
    0.0000000000000000      4.8174206615245438      0.0000000000000003
ITEM: ATOMS id type x y z
1      1          0.0000000000000000     0.0000000000000000     0.0000000000000000
2      1          2.3398895007657501     2.4087103307622719     0.0000000000000000
3      1          0.0000000000000003     2.4087103307622719     2.4087103307622719
4      1          2.3398895007657501     0.0000000000000001     2.4087103307622719
ITEM: TIMESTEP energy, energy_weight, force_weight, nsims
28       -24057.9697554658887384    1    1   885
ITEM: NUMBER OF ATOMS
4         
ITEM: BOX BOUNDS xy xz yz pp pp pp
    0.0000000000000000      4.6858116221701005      0.0000000000000003
    0.0000000000000000      4.8173845267090138      0.0000000000000003
    0.0000000000000000      4.8173845267090138      0.0000000000000003
ITEM: ATOMS id type x y z
1      1          0.0000000000000000     0.0000000000000000     0.0000000000000000
2      1          2.3429058110850498     2.4086922633545069     0.0000000000000000
3      1          0.0000000000000003     2.4086922633545069     2.4086922633545069
4      1          2.3429058110850498     0.0000000000000001     2.4086922633545069
ITEM: TIMESTEP energy, energy_weight, force_weight, nsims
29       -24057.9712945424544159    1    1   885
ITEM: NUMBER OF ATOMS
4         
ITEM: BOX BOUNDS xy xz yz pp pp pp
    0.0000000000000000      4.6918971605336006      0.0000000000000003
    0.0000000000000000      4.8174101014750343      0.0000000000000003
    0.0000000000000000      4.8174101014750343      0.0000000000000003
ITEM: ATOMS id type x y z
1      1          0.0000000000000000     0.0000000000000000     0.0000000000000000
2      1          2.3459485802667999     2.4087050507375172     0.0000000000000000
3      1          0.0000000000000003     2.4087050507375172     2.4087050507375172
4      1          2.3459485802667999     0.0000000000000001     2.4087050507375172
ITEM: TIMESTEP energy, energy_weight, force_weight, nsims
30       -24057.9727450459249667    1    1   885
ITEM: NUMBER OF ATOMS
4         
ITEM: BOX BOUNDS xy xz yz pp pp pp
    0.0000000000000000      4.6979297811722009      0.0000000000000003
    0.0000000000000000      4.8173887396478463      0.0000000000000003
    0.0000000000000000      4.8173887396478463      0.0000000000000003
ITEM: ATOMS id type x y z
1      1          0.0000000000000000     0.0000000000000000     0.0000000000000000
2      1          2.3489648905861000     2.4086943698239232     0.0000000000000000
3      1          0.0000000000000003     2.4086943698239232     2.4086943698239232
4      1          2.3489648905861000     0.0000000000000001     2.4086943698239232
ITEM: TIMESTEP energy, energy_weight, force_weight, nsims
31       -24057.9741118743513653    1    1   885
ITEM: NUMBER OF ATOMS
4         
ITEM: BOX BOUNDS xy xz yz pp pp pp
    0.0000000000000000      4.7039624018108013      0.0000000000000003
    0.0000000000000000      4.8173749353184592      0.0000000000000003
    0.0000000000000000      4.8173749353184592      0.0000000000000003
ITEM: ATOMS id type x y z
1      1          0.0000000000000000     0.0000000000000000     0.0000000000000000
2      1          2.3519812009054002     2.4086874676592296     0.0000000000000000
3      1          0.0000000000000003     2.4086874676592296     2.4086874676592296
4      1          2.3519812009054002     0.0000000000000001     2.4086874676592296
ITEM: TIMESTEP energy, energy_weight, force_weight, nsims
32       -24057.9753894493987900    1    1   885
ITEM: NUMBER OF ATOMS
4         
ITEM: BOX BOUNDS xy xz yz pp pp pp
    0.0000000000000000      4.7100479401743005      0.0000000000000003
    0.0000000000000000      4.8174229030664533      0.0000000000000003
    0.0000000000000000      4.8174229030664533      0.0000000000000003
ITEM: ATOMS id type x y z
1      1          0.0000000000000000     0.0000000000000000     0.0000000000000000
2      1          2.3550239700871498     2.4087114515332266     0.0000000000000000
3      1          0.0000000000000003     2.4087114515332266     2.4087114515332266
4      1          2.3550239700871498     0.0000000000000001     2.4087114515332266
ITEM: TIMESTEP energy, energy_weight, force_weight, nsims
33       -24057.9765813085541595    1    1   885
ITEM: NUMBER OF ATOMS
4         
ITEM: BOX BOUNDS xy xz yz pp pp pp
    0.0000000000000000      4.7160805608129008      0.0000000000000003
    0.0000000000000000      4.8174291320647695      0.0000000000000003
    0.0000000000000000      4.8174291320647695      0.0000000000000003
ITEM: ATOMS id type x y z
1      1          0.0000000000000000     0.0000000000000000     0.0000000000000000
2      1          2.3580402804064500     2.4087145660323848     0.0000000000000000
3      1          0.0000000000000003     2.4087145660323848     2.4087145660323848
4      1          2.3580402804064500     0.0000000000000001     2.4087145660323848
ITEM: TIMESTEP energy, energy_weight, force_weight, nsims
34       -24057.9776931661981507    1    1   885
ITEM: NUMBER OF ATOMS
4         
ITEM: BOX BOUNDS xy xz yz pp pp pp
    0.0000000000000000      4.7220602637266014      0.0000000000000003
    0.0000000000000000      4.8173844942704491      0.0000000000000003
    0.0000000000000000      4.8173844942704491      0.0000000000000003
ITEM: ATOMS id type x y z
1      1          0.0000000000000000     0.0000000000000000     0.0000000000000000
2      1          2.3610301318633002     2.4086922471352246     0.0000000000000000
3      1          0.0000000000000003     2.4086922471352246     2.4086922471352246
4      1          2.3610301318633002     0.0000000000000001     2.4086922471352246
ITEM: TIMESTEP energy, energy_weight, force_weight, nsims
35       -24057.9787304646197299    1    1   885
ITEM: NUMBER OF ATOMS
4         
ITEM: BOX BOUNDS xy xz yz pp pp pp
    0.0000000000000000      4.7280928843651999      0.0000000000000003
    0.0000000000000000      4.8174018308579738      0.0000000000000003
    0.0000000000000000      4.8174018308579738      0.0000000000000003
ITEM: ATOMS id type x y z
1      1          0.0000000000000000     0.0000000000000000     0.0000000000000000
2      1          2.3640464421825995     2.4087009154289869     0.0000000000000000
3      1          0.0000000000000003     2.4087009154289869     2.4087009154289869
4      1          2.3640464421825995     0.0000000000000001     2.4087009154289869
ITEM: TIMESTEP energy, energy_weight, force_weight, nsims
36       -24057.9796768769774644    1    1   885
ITEM: NUMBER OF ATOMS
4         
ITEM: BOX BOUNDS xy xz yz pp pp pp
    0.0000000000000000      4.7340725872789005      0.0000000000000003
    0.0000000000000000      4.8173780625972471      0.0000000000000003
    0.0000000000000000      4.8173780625972471      0.0000000000000003
ITEM: ATOMS id type x y z
1      1          0.0000000000000000     0.0000000000000000     0.0000000000000000
2      1          2.3670362936394498     2.4086890312986236     0.0000000000000000
3      1          0.0000000000000003     2.4086890312986236     2.4086890312986236
4      1          2.3670362936394498     0.0000000000000001     2.4086890312986236
ITEM: TIMESTEP energy, energy_weight, force_weight, nsims
37       -24057.9805491382794571    1    1   885
ITEM: NUMBER OF ATOMS
4         
ITEM: BOX BOUNDS xy xz yz pp pp pp
    0.0000000000000000      4.7401052079174999      0.0000000000000003
    0.0000000000000000      4.8174115837534250      0.0000000000000003
    0.0000000000000000      4.8174115837534250      0.0000000000000003
ITEM: ATOMS id type x y z
1      1          0.0000000000000000     0.0000000000000000     0.0000000000000000
2      1          2.3700526039587495     2.4087057918767125     0.0000000000000000
3      1          0.0000000000000003     2.4087057918767125     2.4087057918767125
4      1          2.3700526039587495     0.0000000000000001     2.4087057918767125
ITEM: TIMESTEP energy, energy_weight, force_weight, nsims
38       -24057.9813464321850915    1    1   885
ITEM: NUMBER OF ATOMS
4         
ITEM: BOX BOUNDS xy xz yz pp pp pp
    0.0000000000000000      4.7460849108312004      0.0000000000000003
    0.0000000000000000      4.8173995827013485      0.0000000000000003
    0.0000000000000000      4.8173995827013485      0.0000000000000003
ITEM: ATOMS id type x y z
1      1          0.0000000000000000     0.0000000000000000     0.0000000000000000
2      1          2.3730424554155998     2.4086997913506742     0.0000000000000000
3      1          0.0000000000000003     2.4086997913506742     2.4086997913506742
4      1          2.3730424554155998     0.0000000000000001     2.4086997913506742
ITEM: TIMESTEP energy, energy_weight, force_weight, nsims
39       -24057.9820683505240595    1    1   885
ITEM: NUMBER OF ATOMS
4         
ITEM: BOX BOUNDS xy xz yz pp pp pp
    0.0000000000000000      4.7520646137449010      0.0000000000000003
    0.0000000000000000      4.8173959980546650      0.0000000000000003
    0.0000000000000000      4.8173959980546650      0.0000000000000003
ITEM: ATOMS id type x y z
1      1          0.0000000000000000     0.0000000000000000     0.0000000000000000
2      1          2.3760323068724500     2.4086979990273325     0.0000000000000000
3      1          0.0000000000000003     2.4086979990273325     2.4086979990273325
4      1          2.3760323068724500     0.0000000000000001     2.4086979990273325
ITEM: TIMESTEP energy, energy_weight, force_weight, nsims
40       -24057.9827173423218483    1    1   885
ITEM: NUMBER OF ATOMS
4         
ITEM: BOX BOUNDS xy xz yz pp pp pp
    0.0000000000000000      4.7580443166586006      0.0000000000000003
    0.0000000000000000      4.8173961614645995      0.0000000000000003
    0.0000000000000000      4.8173961614645995      0.0000000000000003
ITEM: ATOMS id type x y z
1      1          0.0000000000000000     0.0000000000000000     0.0000000000000000
2      1          2.3790221583292999     2.4086980807322997     0.0000000000000000
3      1          0.0000000000000003     2.4086980807322997     2.4086980807322997
4      1          2.3790221583292999     0.0000000000000001     2.4086980807322997
ITEM: TIMESTEP energy, energy_weight, force_weight, nsims
41       -24057.9832962647742534    1    1   885
ITEM: NUMBER OF ATOMS
4         