ITEM: TIMESTEP energy, energy_weight, force_weight, nsims
1        -396920.6152397905825637    1    1   200
ITEM: NUMBER OF ATOMS
66        
ITEM: BOX BOUNDS xy xz yz pp pp pp
    0.0000000000000000     11.9999937223983011      0.0000000000000007
    0.0000000000000000     11.9999937223982993      0.0000000000000007
    0.0000000000000000     11.9999937223982993      0.0000000000000007
ITEM: ATOMS id type x y z
1      1          4.7229275292772170     2.4716759069829175     3.7537240363002731
2      1         11.8931565782884139     2.2431540265304255     7.9505070408214475
3      1         11.6253275183988354     8.3135260509139517     6.7553592660435831
4      1          8.5306755373157266     4.0411466859397853     2.0054125509010148
5      1         10.6649812207883929     5.3098868222190028    10.0338211509695281
6      1          2.0627401209110285     5.6141730630365991     6.6047377448387845
7      1          9.0748140526585068     3.3418626517588637     6.3454550804782972
8      1          1.0312974604934941     0.2534758673982199     9.9273980066430649
9      1         11.8668837920325974    11.5316663673961450     7.6014008234506916
10     1          0.4046889882935330     6.2187135467810695     1.9802521640632620
11     1          8.0586617842420516     8.5770699130452623     1.1674793892521305
12     1          1.5641259817529125     1.9196785957513405     5.5570410929242620
13     1          1.0952046270614988     4.8599698575857504     9.2245463743284741
14     1          0.1374119281151837     2.5707766551399720    11.0245178327026583
15     1          5.0746329452882435     3.4715465839168216     0.7137908265919291
16     1          5.5019899217233883    10.9025606965025528     8.7414530270509090
17     1          7.9371498478090459     0.3223306313779686     2.2703268123154237
18     1          5.1979844807588940     8.8442497732744627    11.9290281595227814
19     1          9.1381488195259521     3.1167463695247881    10.6736848162352498
20     1         11.1301837774252359    11.7887074329292876     2.2127904424146405
21     1          9.1489536138735996     0.0366563808238107     9.4404190613981864
22     1          2.5030102905908445     9.7977824744493240     5.8140809584580326
23     1          6.9554447613721075     6.8663988079550515     6.7423968728246493
24     1          8.8322929795294645     8.8739917577154248     4.4659224637252404
25     1          5.9380696935953408     0.0424403777980061     0.4677069553267071
26     1          4.6770323532865330     5.4853207304436049     7.2971481826155156
27     1          0.4865469454708731     9.8036804713638830     0.3750190038149027
28     1          1.3161329114864573     7.5322700596153283     9.1966823889050673
29     1         10.8073143463291323     8.4088384010528454    10.5307972909845358
30     1          6.8318124260483559     2.9883044367170983     8.9647837102190913
31     1          5.4165991663941737    10.1577114861583127     2.7538101593889679
32     1          3.5555525399704715     6.1286103939170697     3.4471301966898578
33     1          6.5679397640890516     5.6040846683141803    10.6945888052996665
34     1          9.1844171953214033     1.5348495970683766     4.3779061097695653
35     1          6.3138974969871340     3.3970794228731074     5.8007033654563029
36     1          7.8642774859310380    10.9389410774707461     5.7766865780202954
37     1          9.3505379084180511     9.5971197794227532     7.4375037091908034
38     1          2.4435383217026385    10.9893170511173750     3.0932131818357926
39     1         11.1224545814686397     3.4759637816060374     4.1715098177424315
40     1          9.4891114359255617     6.4628210190802129     2.6161942313805042
41     1          3.6350860983637832     1.3773256794744544     8.1387593423403146
42     1          6.5661193650413612     5.9658628790557877     2.3623859641561746
43     1          3.2754882864815347     7.1518090586473164     0.6448544626548676
44     1          9.5993025782808576     6.3594638731498243     7.5023960752434169
45     1          3.7935076154881413     5.8013861650991085    10.2160542556372391
46     1          5.2353956611878427     8.8096345913828316     5.5223407110772014
47     1          6.1682235731940800     8.3845372137656167     8.7166418400304781
48     1          0.4387953704513337     8.8800865545270309     3.1723939404136656
49     1          2.7338037698549855     1.6676247276092251     1.9032626043390990
50     1          1.7808254683900973     4.2630625698480964     0.6423620639587254
51     1          4.6959959433660385    11.6974378806754711     5.8733873274328694
52     1          8.4348423874492831    11.0639378120807361    11.9720277370282506
53     1          3.7047772619059836     1.8879146123681523    10.9298774822122198
54     1          2.9568092531932919    10.4190305494534918    10.2270282498963745
55     1         11.0711402083129204     2.5753342527557384     1.6341411451256169
56     1         11.8669677919886531    11.6274683172789111     4.8950158392520144
57     1         11.8761177872019825     6.0035152593585570     5.1353637135179300
58     1          1.6523631355930792     4.2406453815752849     3.5947181194816347
59     1          8.9145337365065487     5.8786013247052518     0.0730103618058157
60     1         10.8114291441765413     0.3840933990677811    11.6130983247963382
61     1          3.6845056725107361     8.7550910199164154     7.9982694158353365
62     1          8.4860583606564770     5.4339307573274329     4.8114598829629545
63     1          3.5685197331868950     3.6081989124293772     5.8765805257624004
64     1          8.4995955535747161     7.4245653159593150     9.8427032509497501
65     1          7.4969084781141646     0.8379163616576730     7.5273704621784718
66     1          3.3144750660862345    11.3616252563503881     0.6291224708848033
ITEM: TIMESTEP energy, energy_weight, force_weight, nsims
2        -432989.6088732833159156    1    1   200
ITEM: NUMBER OF ATOMS
72        
ITEM: BOX BOUNDS xy xz yz pp pp pp
    0.0000000000000000     11.9999937223983011      0.0000000000000007
    0.0000000000000000     11.9999937223982993      0.0000000000000007
    0.0000000000000000     11.9999937223982993      0.0000000000000007
ITEM: ATOMS id type x y z
1      1         10.3786529705763648     4.0765310674290207     6.0599404298406467
2      1          8.7637574153827291     7.2888021869815880     1.3458820959236539
3      1          0.8562739520541977     4.1942546058438648     0.4119693844849115
4      1          0.4829409473572918     0.1970302969268022     0.9976938780726614
5      1          5.6824338273270900     2.0314141372987073     3.4320570045751535
6      1         10.0917079206870053     0.9000883291334187     9.6543069495062142
7      1          6.9132335834541996     3.3590994427417158     1.1409438031337913
8      1          2.4930286958125540     9.5424262080348061    11.1828877498540091
9      1          6.9996107382673953    10.9471166731938165     6.9431051678273654
10     1          0.7022660326209383     3.5803793269827411     4.6211159825382735
11     1         10.4114777534046130     8.6258750875136307     9.7187049158174652
12     1          1.4281672528775120     9.1042920372375775     4.1187410453475568
13     1          5.0573181543461967    10.3575869815966950     0.8250043684123721
14     1          3.3951510238819180     6.9404315692260159     3.6463048924948525
15     1          2.2292628337973768     0.8094739765368443     3.4464545970432865
16     1          7.1091082809855362     6.5566969699705364     9.2130059803656454
17     1         11.9157333664777347     7.3286481661368112     6.4477574269604867
18     1          9.6480525527781005    11.7819778364497676     5.4727099370407348
19     1          0.1367399284667294     3.3107394680404516     8.9527657165061090
20     1         11.1997585410283307     6.0771352208454701     1.3248497069264062
21     1         10.1526210888212702     9.3684502990474758     6.3564542747242463
22     1          3.7262380506791208     4.5323004290006867     5.4578707448036177
23     1          6.2083251522155898     4.5469656213288285     4.2556693737157270
24     1         10.0146007610243615     5.8168613570035133     9.5950953804817836
25     1          3.5579453387187181     0.0754703605189077     5.7288018030704375
26     1          3.8331243947632672     6.0021748600597649     8.0342657970044158
27     1          2.0876533078780994     7.6833355805878547     0.9814554865675121
28     1          6.4015730511210922     2.3764427568025925     6.6391273268484339
29     1         11.0192078354804970    10.1129227095888332     3.1520527510548280
30     1          6.3102746988823410     6.3372158847884972     0.4791621493341086
31     1         10.2597294327892801    10.3824437685932711    11.8774749864919844
32     1          5.7016590172697459     7.4619692963920290     4.9343422186790571
33     1          3.2249491129202816    10.7940351532759262     8.2800004684523145
34     1          8.3568532282480437     6.7197168846893156     6.3864134590515871
35     1          3.4232910091609421     1.0928202283088579    10.8901839029772702
36     1          1.9164349974481769     7.3207953702448751     9.5948433806136126
37     1          3.7190020544645139     3.8712579748143030     2.3161055883670012
38     1          0.8301931656979377     0.1752623083143721     8.2643692766295196
39     1          5.7179562087441340     3.2254855126396724     9.3413339132329725
40     1          9.0521928644924117     4.4249580851550894    11.6884270853893213
41     1         10.8959654999527213     2.5592818611532859     2.4460979203636253
42     1          9.4879870365137737     0.2197906850200751     2.4012251438380892
43     1          8.3140876506201611     9.9930391723039573     1.6669383279683037
44     1          6.4469126274024315    10.5867076617359341     9.7195713153642220
45     1          4.8526618614088086     1.1577977943168996     1.1058654214844765
46     1          2.4902566972626796     7.8589242887314752     6.7192368849404192
47     1          5.5427959003764027    10.7576619723039641     3.5619665366150928
48     1          8.4267219916973364     2.2188012392701904     4.3488229249839607
49     1          3.9714795223850308     6.6390709268779382    11.3068188850214497
50     1          9.0263652780036949     5.3268092133663272     3.9996003076740974
51     1          2.8514769082961959     2.9906336354986158     8.9519473169342412
52     1          7.2012346327911310     1.1112834186501399     9.9339344032236561
53     1          4.5569652160977059     8.7802262067673507     9.6878721319471346
54     1          8.6122886946211299     3.6366088975671556     8.2027433088681416
55     1          8.3480416328576865     9.4249054695138703     4.2293149875025957
56     1          0.0282335852300591     1.0225398650748876     5.5313191063803009
57     1          9.1409652180525995     1.7801558687403869     0.0126887933620640
58     1          8.1215465513449079     8.9921352959105540    10.9966574472773662
59     1          0.4861581456742674     6.4302554361163686     3.7193944542592359
60     1          8.0687489789651003     8.8070845927168211     8.3312440416450730
61     1          6.3750842649782706     5.1661640974052094     7.1033278840094551
62     1          0.7765447937632121    10.0048735661129857     6.7569348652193337
63     1          3.7976368133280194     3.6578608864495230    11.3228616766289250
64     1          2.6296978243163194    10.0850275241817453     1.8670706232723460
65     1          4.6920431454338809     9.4139326752541095     6.5129521928549039
66     1          1.6387383427206683     4.7744687023142909     7.3505541546770496
67     1          6.0903124139520370     8.2827304670241606     2.2783260081307746
68     1          5.0192733742487050     0.9023587279456965     8.2884964640077730
69     1          0.7900735866858436     1.3328501027411299    10.6709596176608930
70     1          7.1404030646141781    11.8578177967753238     0.2859082504317451
71     1          8.6208098901634038     1.0931046281600785     7.5142088690637454
72     1          2.4072443406892443     2.3106095912421432     6.4356266333065140
ITEM: TIMESTEP energy, energy_weight, force_weight, nsims
3        -553120.3451417793985456    1    1   200
ITEM: NUMBER OF ATOMS
92        
ITEM: BOX BOUNDS xy xz yz pp pp pp
    0.0000000000000000     11.9999937223983011      0.0000000000000007
    0.0000000000000000     11.9999937223982993      0.0000000000000007
    0.0000000000000000     11.9999937223982993      0.0000000000000007
ITEM: ATOMS id type x y z
1      1          5.0575797542093452     9.3711982976099044     7.5978884252881462
2      1         11.1981865418506956     3.8449515885760626    11.5512839571335206
3      1          5.1824732888733225    11.5511951571799738    11.9281029600067825
4      1          6.8166744339675489     1.5240484027188461     2.9162732743990296
5      1         10.9218662864031462     6.6156109391506499     7.2077746293698377
6      1         11.7148978715415613     6.3626330714919099     9.9803395789475413
7      1          5.8059029627362193    10.8174951410032154     3.9402435387256265
8      1         11.1569269634349730     8.8323517794987030     1.9704025692159175
9      1          9.6968157272684383     9.8183384636957935     8.3597284267439296
10     1         11.7501070531224485     1.7803598686336684     6.2248839435531274
11     1          5.9174945043589169     6.2340723387463672     0.5951264886692491
12     1          3.2028511244804854     8.2076681062918144     5.8513577389572902
13     1          6.5073625957790115     5.1007401316306940     6.3743918653404874
14     1          2.2528236214719342     6.8893751959353269     1.8922154101182593
15     1          1.9630201730778991    10.4016065585685684     3.1480147531672409
16     1          8.2306948942457261     5.8234325535658975     0.0448955765136088
17     1          3.8512503852809497     9.8819720304069278    10.5298408914848611
18     1          4.8160114805818610     2.6690182037465022     9.4193794724047066
19     1          7.9004634670009297     4.0532318796176128     4.6607231618184208
20     1          8.7603818171486196     8.3162416494933318     5.1273213177251780
21     1          9.5808477879351805     0.6322688692388164     2.6159842314903621
22     1          8.4851199611473866     5.6033346687065304     7.8029323180227657
23     1          7.5003692763037044    11.5675739486116758    10.0468123441733947
24     1          6.2386227363659019     7.3739817424212886     4.7937850922092347
25     1         11.3029356870528819     0.0573011700238246     8.6649746670593188
26     1          9.3119963285804523     1.7132715037298560     8.3429092355426171
27     1          2.6224690280979468     0.5767688982727244     4.8885970426099030
28     1          2.2150272412444960     4.9184062270157130     0.3408790216746795
29     1          1.5058324122482463    10.9948598482177520     9.0622320592405714
30     1          1.4842516235378851     7.4779268880440757     7.6340900063498767
31     1          3.5396657482813891     6.0843748170581939     7.5407852551607411
32     1          7.4298609131890085     0.8756635419108486     0.5113857324768647
33     1          9.6275913634820380     9.2387603668926559    11.4049008337114728
34     1          3.3594378425646880     1.0040610747417660     0.7154240257375475
35     1          4.7534027133346202     9.3652967006972290     1.5469227907524816
36     1          9.0893436450575855    11.5383767638857098     4.7842186972137384
37     1          5.7271602039292127     2.3249531837385260     5.1712064947673611
38     1         10.6956148047629327     5.4290143598993659     2.5533130642757649
39     1          0.4975041397387951     7.2585730027954947     5.4008239746467082
40     1          3.0956743805482576     5.9360836946342843     4.7959366910836598
41     1          1.0427862544833182     5.1731456937529012     7.0494971121701493
42     1          5.6234274581953141     0.5236473260624118     8.4268719916188655
43     1          2.3846639525018078    10.7683143667313388     0.3831321995706162
44     1          7.9332522498480120    11.1829477498226222     7.2375430137969916
45     1         11.8518153999153810    10.5434764843516220    11.4847967919152012
46     1          0.2975542443393337    11.7828598359883632     4.4069520945746303
47     1          2.1513852745377564     3.2940306767813836     2.4311363281905387
48     1          6.5969341489211102     3.4152270133794902    11.8134586199811071
49     1          8.7552398198385717     8.0051286122470593     2.7150837796480443
50     1          1.4864188224041499     1.3088561152931946    10.1566770866994407
51     1          0.6974144351589722     0.4450461671813303     0.7918099857774740
52     1          5.0585337537102752     4.9570378068062304    10.1875830705314776
53     1          7.0342247201596546     7.7368675525834751    10.6913920069720199
54     1         10.2645594302625476     0.6240392735439961    11.4894479894820023
55     1         11.0497442195058841     3.9368391405065823     4.9458346126669985
56     1         11.4368100170187024     2.4568943147156665     1.7630042777129631
57     1          9.2031467855233231     3.2870178804500148     6.5338513819218331
58     1         10.6523680273867800     6.2478267315509797     0.2395942746601489
59     1          1.5784167742769171     7.5784424354610005    11.0690306094165223
60     1          3.7584352338356872     0.3987345914084791    10.0055767657451185
61     1         11.5108547782833899     3.1077187742474282     8.6644850673154465
62     1          3.0865099853424609     1.3895236730932723     7.2961545831353023
63     1          6.9723815525119024     3.4049898187349119     8.5742859145016670
64     1          8.6549774722891897     3.4606625896106062     2.2052160463770627
65     1          1.9237837936037729     2.9200916724014974     5.6990454186370059
66     1          9.2537879590312144     7.3059669780021075     9.8809532309398946
67     1          6.0261028475422274     4.6979567423402777     2.8208997242921527
68     1         11.2476073159970209     9.3244367220724627     5.5465614984064908
69     1          7.5104900710091753     9.3025823335052316     0.9674178939110506
70     1          8.9190313341537042     2.7563721580487006    10.6264936409225470
71     1          4.3311193342453080     7.8179011101920866    11.7163498707819702
72     1          4.1577854249221247     0.9292831138606413     3.0069596269579377
73     1          2.7058533844767760     4.2364309837799796     9.0226860799284072
74     1          4.4578824679312330     3.2678550904747161     1.0662858421898902
75     1          6.1166800001582633     6.3610790723048591     8.4580587753040053
76     1          2.0116969476134354    10.2130350572166844     6.7148688872254674
77     1          4.2637753694752067     3.9735651212939826     6.4198610415540269
78     1          4.8558718597295512     0.1925278992821587     5.9675944781499295
79     1          0.1057187446949579     8.6985206495102840     9.4541230542291661
80     1          9.7747220865129911     5.9962744631464622     5.1900068849322425
81     1          7.7002411717439712     8.4486015802513847     7.9396002465271591
82     1          4.0871090618953154     3.7232668522334547     4.0381178875242512
83     1          1.0004058766539239     5.2777076390530180     3.4428281989403779
84     1          4.6117667874291532     7.3604973494754287     2.8947560856553971
85     1          7.2769917931600041     1.6329783457339169     6.9281891756304246
86     1          3.7048780618532522     7.7361271529708020     9.2821583441897086
87     1          3.0420584085965814     2.8639101017919733    11.1464497689159465
88     1          9.8365376541751832     4.8717262514355841     9.6806997356992568
89     1          6.7322052781562167     9.5274346158774126     5.8147685580983266
90     1          9.8677436378502801     1.8337370407102678     4.6936055446165366
91     1          7.8788610783018695    10.9281110831362831     2.7081045832990975
92     1          0.4965549402353530     2.1903252541669391     3.9038979577392263
ITEM: TIMESTEP energy, energy_weight, force_weight, nsims
4        -541118.7489514037733898    1    1   200
ITEM: NUMBER OF ATOMS
90        
ITEM: BOX BOUNDS xy xz yz pp pp pp
    0.0000000000000000     11.9999937223983011      0.0000000000000007
    0.0000000000000000     11.9999937223982993      0.0000000000000007
    0.0000000000000000     11.9999937223982993      0.0000000000000007
ITEM: ATOMS id type x y z
1      1          8.3480596328482690    11.2113625349578889     5.7023046169320093
2      1          1.6979919117231268    10.9600514664271902     5.1504501056257288
3      1         11.6985214801086030    10.7407599811459669     3.1977871271296325
4      1         10.6415632330391325     9.7666052907591610     0.4111881848935834
5      1          2.1625740686845210     4.1055542522460131     3.1881847321529690
6      1          9.3234539225865980     2.3747171577053110     3.1319419615754609
7      1          6.3219638927673296     1.6638663295753697     2.9658152484819511
8      1          1.6764939229694502     5.5767366826208340     7.6165496155258472
9      1          0.8149231736861864     9.7115265195727254     9.8729312351364715
10     1          2.5473250674082890     4.4156544900221135     5.5540698944785953
11     1          6.4519982247419820     6.0426808388697211     1.2355085536637787
12     1         11.3084892841476083     1.6106175574316002    11.8892961803079196
13     1          1.8471410336981877     7.2645129996880833    11.5476875590149195
14     1          2.4704399076295105     9.7747604864929034     1.2694493359082102
15     1          2.3213471856249455     8.4920463575239538     6.2932347077965352
16     1         11.1896533463146977     1.0958322267331795     4.8075754849950139
17     1          5.2323020628062080     7.9076886632211858     4.3033393487779543
18     1          5.7672941829337745     0.0796391583380690     7.2832857898674010
19     1         10.8947751005754601     7.7598967405361279     2.3907227493322458
20     1          1.7243306979444188     3.0253820173205641     9.3934594859643248
21     1          5.9723356756696502     3.1569547484904290    11.9574645446467471
22     1          7.1225302739640384    10.8231147380634134     2.2854396044094121
23     1         11.2974528899211180     7.4504961023940446     8.3797360162772847
24     1          6.2550243277856756     4.4659668637020138     8.6613170689727319
25     1          8.0995193628680724     7.1935798367956130     4.5700800092369134
26     1          6.3947486546911652     7.8692154833478041     7.0434371153403372
27     1          8.1566021330061496    10.5642568734806996    11.3199912781305283
28     1          8.1070637589213455     2.3014859960150038     7.9718322296655213
29     1          9.7400433046546322    10.1857566714869296     9.1336428218831909
30     1          0.3157354348281391    11.6803018896398854     1.0263234630955593
31     1          2.9685584470468918     2.1788124601896706     6.3996506521267635
32     1         11.5374467643722234     1.9585093754376490     8.8791949549934586
33     1          5.5071859190051855     3.3261018600038659     4.8969862382212321
34     1          1.7210462996625986     2.0384545336156390    11.7124990727964526
35     1          4.7703935044461652     7.4742872899480721    11.8133806200219098
36     1          8.3510140313027250     4.2474073780378561     5.5959486725703931
37     1          9.6092361730842590     4.7690387051549052    11.5661831493392508
38     1         10.7283399876432846     5.3266988134240814     3.0766555904976274
39     1          7.2246634205347426     5.8585301352051697    10.6193776446451640
40     1          2.6706370028996544    11.3874624428340834     8.4996579535420711
41     1          3.2259403124017521     6.9819191475224631     1.8060998551682121
42     1         11.4009132357975211     9.8482724480363153     7.0992706861319128
43     1          0.9172747201426373     4.5756708063121776     0.4112121848810282
44     1          6.3030723026501594     9.9054572181210325     8.4319095889835278
45     1          9.3012203342177386     9.7269489115047527     3.6141605093106643
46     1          3.9882819135951317     1.3657840855122514     1.7904638633479271
47     1          6.4506542254450743     1.7942882613472562     9.7963580751944761
48     1          3.0589855997413968     6.5341345817736816     4.4281116835053353
49     1          9.0222996801305460     8.7198002383782143     6.9941555411211924
50     1          1.6060635598139494     0.2028538938802822     2.9992688309812530
51     1          9.0124356852907344     7.5661616418854978    10.2755814244965684
52     1          3.3926970251656878     7.9461186431171669     9.6158937696014455
53     1          0.6986648345048466     0.1949374980216165    10.3508285851322395
54     1          5.5498062967090291    11.6093783267423962    11.7352282609060481
55     1         10.6856020100009630     4.8090766842096864     6.9128291836657541
56     1          3.8210212010948554     5.0555157552890906     0.2356738767110414
57     1          4.0563098780074087     2.0915401058447842     9.1660788049148341
58     1          4.5571140160198613     0.3508510164579927     3.9847959154187746
59     1          7.7287255568428268     1.4463412433700833     0.6338996683856901
60     1         10.9368938785417047     8.0295701994608422     5.5258711092303319
61     1          3.8892315654117127    10.3735997732198637     6.1465167845496333
62     1          6.5692981633784253     4.2035414009856291     2.8813076926907053
63     1         10.0816795259331968     0.8194675713088579     7.1706214488059210
64     1          9.7236525132292098     0.6260708724811982    10.1560926870051595
65     1         11.4573384062796091     6.7282836802077375    11.4687072003322097
66     1          4.2281953880882970     6.4252082387567286     7.5337460588431826
67     1          0.6419588641696533     0.0613499679057617     7.0086899335177613
68     1          0.0980951486831175     2.8988708835028079     2.7747993484088149
69     1          3.9507879332094986     4.8271186747713131     9.5562514008023811
70     1          7.3461177569978799     8.5032123516826470     0.3011254424711184
71     1          4.7179223318956058    10.4591801284498906     2.1245556885732180
72     1          2.1903852541355517     8.9861268990537493     3.6310577004711728
73     1          9.8089544686048775    11.9764449347174651     2.3241851841402918
74     1         11.9232525625441905     5.1212997208752800     9.4438450596059305
75     1          2.7667233526336426    11.3661240539969146    11.3595612574301352
76     1          8.4235131933759657     6.3176534950222454     7.7033767701036320
77     1          7.3382553611109635     1.4548204389343304     5.6024922691472163
78     1          0.1040819455512222     4.2833341592433447     5.0396997635629699
79     1          0.9846882848763266     6.1786059677626977     2.6407654185264873
80     1          5.8122089594373385     5.7437837952328508     5.5261399090897134
81     1          9.6409185565101350     3.5225225572495704     9.4086658780093497
82     1          6.1320771921034725    10.6329832375276201     4.9463782123826237
83     1          8.8235749840901416     6.5814517570204707     1.6179687535859406
84     1          5.8141277584335525     7.6794307826305879     9.4223074708729708
85     1          7.8313279031680789    11.9036949727754244     8.7185642390248059
86     1          0.7146644261349203     3.2936706769697124     7.1552254568600837
87     1          4.3291849352572562     4.0109607017310926     7.1687794497695325
88     1          7.0340123202707678     8.4112167998086242     2.6928813912628629
89     1          4.3717321129993927    10.1246011034794705    10.0566979390019071
90     1          0.8939443323475511     6.5368429803568269     5.4660667405160153
ITEM: TIMESTEP energy, energy_weight, force_weight, nsims
5        -547120.0873907676432282    1    1   200
ITEM: NUMBER OF ATOMS
91        
ITEM: BOX BOUNDS xy xz yz pp pp pp
    0.0000000000000000     11.9999937223983011      0.0000000000000007
    0.0000000000000000     11.9999937223982993      0.0000000000000007
    0.0000000000000000     11.9999937223982993      0.0000000000000007
ITEM: ATOMS id type x y z
1      1          9.7909940780005638     4.5487308204053942     4.2968965521483984
2      1         10.1752638769760626     1.2126869656025219     4.5545316173708015
3      1          6.3910814566095997     2.2079628449401203     5.1172665229851804
4      1          2.3386691765632270     9.9338816032512760     1.0748274377214933
5      1          6.3376862845424151     7.0187111282753367     7.0289615229130087
6      1          2.7691953513404552     1.5688563792782813     4.1547146265285626
7      1          7.1190958757606886    11.6604347000330844     7.4079165246688579
8      1          9.5077390261808414     6.1130560020540985    11.9726901366817273
9      1          6.7544892664987097    10.8159435418149084     2.8685012993901622
10     1          3.2949810762841985     6.1872855632221091     4.2288889877254512
11     1          7.3626789483341613    11.8457494030887087     0.0535643719786693
12     1          5.6020122693983216     1.8148586505861910     8.6338058833647633
13     1          5.6401266494594040     8.6863538558751454    10.6330768374786544
14     1          3.8949231624342460     1.2509105456064777    11.0685638096607217
15     1          8.0415905931725682     2.9447696594916088     3.2851458814293202
16     1          1.0058622737994987     6.7973352440845325     3.5503097427131549